3
Properties=species:S:1:pos:R:3:forces:R:3 #=T ORCA=T AIMD=T Position=T Step=T 5000,=T t=2500.0 fs,=T E_Pot=-5.06999783 Hartree,=T Unit=T is=T Angstrom=T energy=-137.96166809483427 pbc="F F F"
O       -3.89009262     -20.28360279     -20.07863700       0.58602914      -0.48390659      -0.70214557
H       -3.30102042     -20.76033052     -20.69665400      -0.56174365       0.42012748       0.27700463
H       -3.50616931     -20.45541773     -19.22341342      -0.02428548       0.06377911       0.42514094
3
Properties=species:S:1:pos:R:3:forces:R:3 #=T ORCA=T AIMD=T Position=T Step=T 3430,=T t=1715.0 fs,=T E_Pot=-5.07024302 Hartree,=T Unit=T is=T Angstrom=T energy=-137.9683400545736 pbc="F F F"
O       -2.65628600     -13.71952227     -13.71505735       0.34555113       0.01808476      -0.92986833
H       -1.98258584     -14.16717888     -14.25376826      -0.38011500       0.25047825       0.30948275
H       -2.61389883     -14.08973151     -12.84643719       0.03456387      -0.26856301       0.62038559
3
Properties=species:S:1:pos:R:3:forces:R:3 #=T ORCA=T AIMD=T Position=T Step=T 7490,=T t=3745.0 fs,=T E_Pot=-5.07039912 Hartree,=T Unit=T is=T Angstrom=T energy=-137.97258775193197 pbc="F F F"
O       -5.82891376     -30.73691239     -30.24698951       0.03552549      -0.22676431       0.47487757
H       -4.99279737     -30.95365427     -30.65871922       0.09404625       0.03001515      -0.16942013
H       -5.79314597     -31.14225221     -29.36823286      -0.12957174       0.19674916      -0.30545744
3
Properties=species:S:1:pos:R:3:forces:R:3 #=T ORCA=T AIMD=T Position=T Step=T 7530,=T t=3765.0 fs,=T E_Pot=-5.07025715 Hartree,=T Unit=T is=T Angstrom=T energy=-137.96872455145808 pbc="F F F"
O       -5.84410681     -30.88651972     -30.40394892      -0.01705923       0.01455317       0.62457053
H       -5.43404005     -31.54155826     -30.95630417       0.15969500      -0.24996467      -0.45832160
H       -5.67040774     -31.18796342     -29.50228098      -0.14263578       0.23541150      -0.16624893
3
Properties=species:S:1:pos:R:3:forces:R:3 #=T ORCA=T AIMD=T Position=T Step=T 7310,=T t=3655.0 fs,=T E_Pot=-5.0700443 Hartree,=T Unit=T is=T Angstrom=T energy=-137.9629326079428 pbc="F F F"
O       -5.57771155     -29.99461988     -29.50062888      -0.09181665      -0.82714284      -0.14918002
H       -6.28114204     -29.46056225     -29.15551436      -0.29448771       0.55730240       0.21675453
H       -5.97316253     -30.87854279     -29.56305570       0.38630435       0.26984044      -0.06757451
3
Properties=species:S:1:pos:R:3:forces:R:3 #=T ORCA=T AIMD=T Position=T Step=T 7900,=T t=3950.0 fs,=T E_Pot=-5.07050143 Hartree,=T Unit=T is=T Angstrom=T energy=-137.97537174883612 pbc="F F F"
O       -6.06399329     -32.51993156     -31.85210909       0.26827432       0.19403251       0.10609456
H       -5.96991120     -31.67625148     -32.30291063      -0.04306936      -0.09786645       0.02494562
H       -6.82333244     -32.96466195     -32.21813757      -0.22520496      -0.09616606      -0.13104018
3
Properties=species:S:1:pos:R:3:forces:R:3 #=T ORCA=T AIMD=T Position=T Step=T 3470,=T t=1735.0 fs,=T E_Pot=-5.07044715 Hartree,=T Unit=T is=T Angstrom=T energy=-137.97389471480273 pbc="F F F"
O       -2.66544066     -13.87282395     -13.87817149       0.00223526      -0.11710987      -0.22964871
H       -2.52548111     -14.65384259     -14.41975846      -0.03405104       0.08448750      -0.09109902
H       -2.47945091     -14.14634071     -12.98358551       0.03181578       0.03262236       0.32074772
3
Properties=species:S:1:pos:R:3:forces:R:3 #=T ORCA=T AIMD=T Position=T Step=T 3860,=T t=1930.0 fs,=T E_Pot=-5.07023933 Hartree,=T Unit=T is=T Angstrom=T energy=-137.96823964455913 pbc="F F F"
O       -2.90330092     -15.59108815     -15.41187355      -0.62779640      -0.46909483       0.30474646
H       -2.77298704     -14.81802486     -15.95169799      -0.06476233       0.26035892      -0.18632469
H       -3.86087723     -15.75841620     -15.33367757       0.69255873       0.20873591      -0.11842176
3
Properties=species:S:1:pos:R:3:forces:R:3 #=T ORCA=T AIMD=T Position=T Step=T 3060,=T t=1530.0 fs,=T E_Pot=-5.07014829 Hartree,=T Unit=T is=T Angstrom=T energy=-137.96576231997548 pbc="F F F"
O       -2.32694170     -12.26990979     -12.15899637      -0.00632935      -0.12318619       0.10765616
H       -3.07143194     -12.13281696     -12.75461216       0.34713265       0.18058587       0.05608642
H       -1.63377186     -11.61900551     -12.31013197      -0.34080330      -0.05739967      -0.16374258
3
Properties=species:S:1:pos:R:3:forces:R:3 #=T ORCA=T AIMD=T Position=T Step=T 5870,=T t=2935.0 fs,=T E_Pot=-5.07048185 Hartree,=T Unit=T is=T Angstrom=T energy=-137.97483894989776 pbc="F F F"
O       -4.55271356     -23.94069090     -23.65042068      -0.27035282      -0.31513470      -0.00934000
H       -3.76280177     -23.52100577     -23.31929814       0.20373681       0.06605996       0.11098291
H       -4.64635642     -24.79113212     -23.20417894       0.06661601       0.24907474      -0.10164290
3
Properties=species:S:1:pos:R:3:forces:R:3 #=T ORCA=T AIMD=T Position=T Step=T 3870,=T t=1935.0 fs,=T E_Pot=-5.07002326 Hartree,=T Unit=T is=T Angstrom=T energy=-137.96236008038085 pbc="F F F"
O       -2.91522349     -15.63635019     -15.45783960       0.87003925      -0.09734702      -0.07295534
H       -2.74912493     -14.88438330     -16.03343073      -0.31054967      -0.09046251       0.11730786
H       -3.83406307     -15.71843053     -15.24602742      -0.55948958       0.18780954      -0.04435251
3
Properties=species:S:1:pos:R:3:forces:R:3 #=T ORCA=T AIMD=T Position=T Step=T 8830,=T t=4415.0 fs,=T E_Pot=-5.07034676 Hartree,=T Unit=T is=T Angstrom=T energy=-137.97116296375972 pbc="F F F"
O       -6.77996062     -36.42704318     -35.67182315       0.37360409      -0.05194008       0.26106266
H       -7.27007915     -35.60671800     -35.65877696      -0.17605907       0.01422864      -0.12786711
H       -7.18685772     -37.04519138     -36.27506453      -0.19754502       0.03771145      -0.13319555
3
Properties=species:S:1:pos:R:3:forces:R:3 #=T ORCA=T AIMD=T Position=T Step=T 6670,=T t=3335.0 fs,=T E_Pot=-5.0701636 Hartree,=T Unit=T is=T Angstrom=T energy=-137.9661789262955 pbc="F F F"
O       -5.14748734     -27.26560554     -26.90100016       0.69706206      -0.08237945       0.10338763
H       -5.81599182     -27.88597749     -26.63838613      -0.56097973      -0.22464951       0.06729341
H       -4.32014201     -27.67841908     -26.61532799      -0.13608233       0.30702896      -0.17068104
3
Properties=species:S:1:pos:R:3:forces:R:3 #=T ORCA=T AIMD=T Position=T Step=T 9840,=T t=4920.0 fs,=T E_Pot=-5.07023122 Hartree,=T Unit=T is=T Angstrom=T energy=-137.96801896021847 pbc="F F F"
O       -7.59655084     -40.64293489     -39.89482754      -0.31734347       0.45623205       0.46398277
H       -8.07889412     -40.29346152     -39.13012684       0.20988106       0.04259069      -0.36638945
H       -7.58223214     -41.58314786     -39.75677689       0.10746241      -0.49882274      -0.09759332
3
Properties=species:S:1:pos:R:3:forces:R:3 #=T ORCA=T AIMD=T Position=T Step=T 1880,=T t=940.0 fs,=T E_Pot=-5.06988447 Hartree,=T Unit=T is=T Angstrom=T energy=-137.95858341211454 pbc="F F F"
O       -1.43210848      -7.27040148      -7.45374051       0.25769970      -0.57828097      -0.44272651
H       -1.09133399      -7.86918451      -8.13607392      -0.09612544       0.48509177       0.00784409
H       -1.56174666      -7.86252285      -6.71540211      -0.16157425       0.09318920       0.43488242
3
Properties=species:S:1:pos:R:3:forces:R:3 #=T ORCA=T AIMD=T Position=T Step=T 6480,=T t=3240.0 fs,=T E_Pot=-5.07018332 Hartree,=T Unit=T is=T Angstrom=T energy=-137.9667155348279 pbc="F F F"
O       -5.01813568     -26.57768855     -26.11092402       0.15232426       0.05481625      -0.68589449
H       -4.55542928     -25.96979913     -26.71287935      -0.26626979      -0.28756363       0.55536764
H       -4.97944726     -26.24585951     -25.21808535       0.11394552       0.23274738       0.13052684
3
Properties=species:S:1:pos:R:3:forces:R:3 #=T ORCA=T AIMD=T Position=T Step=T 2230,=T t=1115.0 fs,=T E_Pot=-5.07042828 Hartree,=T Unit=T is=T Angstrom=T energy=-137.97338123594844 pbc="F F F"
O       -1.64627942      -8.80583165      -8.81321555      -0.25380356      -0.36169507      -0.34344484
H       -1.90596645      -7.89244253      -8.92453154      -0.00944466       0.16706226       0.02099018
H       -2.15623578      -9.31492070      -9.46256396       0.26324822       0.19463281       0.32245466
3
Properties=species:S:1:pos:R:3:forces:R:3 #=T ORCA=T AIMD=T Position=T Step=T 4340,=T t=2170.0 fs,=T E_Pot=-5.07001088 Hartree,=T Unit=T is=T Angstrom=T energy=-137.96202320342186 pbc="F F F"
O       -3.37244414     -17.52662322     -17.38969386       0.21880476       0.62805565      -0.16811189
H       -2.46451427     -17.20596936     -17.52113774      -0.50385734      -0.47051607       0.14541870
H       -3.38388695     -18.45223313     -17.15975220       0.28505258      -0.15753958       0.02269319
3
Properties=species:S:1:pos:R:3:forces:R:3 #=T ORCA=T AIMD=T Position=T Step=T 5740,=T t=2870.0 fs,=T E_Pot=-5.07037879 Hartree,=T Unit=T is=T Angstrom=T energy=-137.97203454445412 pbc="F F F"
O       -4.37775597     -23.36854494     -23.09509606       0.49504692      -0.40281333      -0.24932936
H       -5.22308701     -23.34790619     -22.66533303      -0.47218192       0.07458572       0.23967749
H       -4.15032403     -24.30196240     -23.20513552      -0.02286500       0.32822761       0.00965187
3
Properties=species:S:1:pos:R:3:forces:R:3 #=T ORCA=T AIMD=T Position=T Step=T 8710,=T t=4355.0 fs,=T E_Pot=-5.07041129 Hartree,=T Unit=T is=T Angstrom=T energy=-137.9729189144999 pbc="F F F"
O       -6.72985282     -35.96285859     -35.18041324      -0.13331152       0.07769137      -0.04040953
H       -7.56573768     -35.53068195     -35.39904260       0.37291497      -0.06062293       0.01394892
H       -6.00493809     -35.45009771     -35.55205944      -0.23960345      -0.01706844       0.02646062
3
Properties=species:S:1:pos:R:3:forces:R:3 #=T ORCA=T AIMD=T Position=T Step=T 8270,=T t=4135.0 fs,=T E_Pot=-5.07024696 Hartree,=T Unit=T is=T Angstrom=T energy=-137.96844726743453 pbc="F F F"
O       -6.38567756     -34.01021686     -33.45356913      -0.50466645       0.39889006       0.27503081
H       -7.01185544     -34.03461675     -32.71089077       0.44939939      -0.13521465      -0.41495602
H       -5.85690725     -34.80262056     -33.45229064       0.05526707      -0.26367541       0.13992521
3
Properties=species:S:1:pos:R:3:forces:R:3 #=T ORCA=T AIMD=T Position=T Step=T 4510,=T t=2255.0 fs,=T E_Pot=-5.07022057 Hartree,=T Unit=T is=T Angstrom=T energy=-137.96772915895733 pbc="F F F"
O       -3.39445269     -18.27793130     -18.08089143       0.38672342      -0.12872109      -0.47426475
H       -4.04020388     -18.35037922     -18.79039699      -0.03258028       0.06187348       0.30655448
H       -3.82067082     -18.07799599     -17.25480724      -0.35414314       0.06684761       0.16771027
3
Properties=species:S:1:pos:R:3:forces:R:3 #=T ORCA=T AIMD=T Position=T Step=T 1210,=T t=605.0 fs,=T E_Pot=-5.06969407 Hartree,=T Unit=T is=T Angstrom=T energy=-137.9534023642155 pbc="F F F"
O       -0.93570848      -4.58820426      -4.71959907      -0.16117040      -1.14043250      -0.01885939
H       -0.64645841      -3.74420931      -5.03985144       0.24235067       0.25474158      -0.40152966
H       -0.72221101      -5.30553736      -5.35059507      -0.08118027       0.88569093       0.42038904
3
Properties=species:S:1:pos:R:3:forces:R:3 #=T ORCA=T AIMD=T Position=T Step=T 7250,=T t=3625.0 fs,=T E_Pot=-5.0703405 Hartree,=T Unit=T is=T Angstrom=T energy=-137.97099262048323 pbc="F F F"
O       -5.55128351     -29.74785974     -29.19578124       0.08231859       0.03021562       0.09069058
H       -6.42568569     -29.35580214     -29.27746662       0.13185419      -0.19033561      -0.14993650
H       -5.40903338     -30.38987063     -29.89750771      -0.21417278       0.16012000       0.05924592
3
Properties=species:S:1:pos:R:3:forces:R:3 #=T ORCA=T AIMD=T Position=T Step=T 8440,=T t=4220.0 fs,=T E_Pot=-5.07036683 Hartree,=T Unit=T is=T Angstrom=T energy=-137.97170909627724 pbc="F F F"
O       -6.56358176     -34.72346182     -34.10236141      -0.27879267      -0.32954901       0.27670350
H       -5.73712743     -34.70997160     -34.58300298       0.10460931      -0.11651840      -0.01916619
H       -6.68914997     -35.60596562     -33.71897911       0.17418336       0.44606741      -0.25753731
3
Properties=species:S:1:pos:R:3:forces:R:3 #=T ORCA=T AIMD=T Position=T Step=T 9550,=T t=4775.0 fs,=T E_Pot=-5.0704808 Hartree,=T Unit=T is=T Angstrom=T energy=-137.97481037794245 pbc="F F F"
O       -7.35780483     -39.49949357     -38.63683076      -0.01924893       0.03349446      -0.09520810
H       -7.50761989     -39.22082141     -39.54716890      -0.02230802       0.00004767       0.25548339
H       -7.87394980     -38.93343331     -38.05570747       0.04155695      -0.03354213      -0.16027529
3
Properties=species:S:1:pos:R:3:forces:R:3 #=T ORCA=T AIMD=T Position=T Step=T 4970,=T t=2485.0 fs,=T E_Pot=-5.07046066 Hartree,=T Unit=T is=T Angstrom=T energy=-137.97426234062792 pbc="F F F"
O       -3.87065949     -20.18224797     -19.96605723      -0.30731906       0.00533427       0.31876863
H       -3.07160372     -20.23866116     -20.47669479       0.36086935      -0.01885309      -0.28016100
H       -3.62672242     -20.34271424     -19.05075946      -0.05355029       0.01351882      -0.03860763
3
Properties=species:S:1:pos:R:3:forces:R:3 #=T ORCA=T AIMD=T Position=T Step=T 6610,=T t=3305.0 fs,=T E_Pot=-5.07026766 Hartree,=T Unit=T is=T Angstrom=T energy=-137.9690105431252 pbc="F F F"
O       -5.12376851     -27.01904751     -26.62089831      -0.37466102      -0.02888931      -0.26610261
H       -5.36829021     -27.78102819     -27.16448709       0.28396993       0.24064452       0.31057806
H       -4.30610056     -27.19125969     -26.15726846       0.09069108      -0.21175520      -0.04447545
3
Properties=species:S:1:pos:R:3:forces:R:3 #=T ORCA=T AIMD=T Position=T Step=T 4100,=T t=2050.0 fs,=T E_Pot=-5.07009626 Hartree,=T Unit=T is=T Angstrom=T energy=-137.96434651156062 pbc="F F F"
O       -3.15708467     -16.50143952     -16.38183554       0.38350919      -0.70843846      -0.32158691
H       -3.66575796     -17.12688840     -16.91713346      -0.04190550       0.33531387       0.19363580
H       -2.26922353     -16.89520964     -16.36039577      -0.34160369       0.37312459       0.12795111
3
Properties=species:S:1:pos:R:3:forces:R:3 #=T ORCA=T AIMD=T Position=T Step=T 4740,=T t=2370.0 fs,=T E_Pot=-5.07033234 Hartree,=T Unit=T is=T Angstrom=T energy=-137.97077057557325 pbc="F F F"
O       -3.58827684     -19.24275789     -18.96144732      -0.44936783       0.12843082      -0.44275608
H       -4.24648255     -18.53337649     -19.00138017       0.29816958      -0.22253295       0.13346491
H       -3.73473969     -19.76408784     -19.76328281       0.15119825       0.09410213       0.30929117
3
Properties=species:S:1:pos:R:3:forces:R:3 #=T ORCA=T AIMD=T Position=T Step=T 7510,=T t=3755.0 fs,=T E_Pot=-5.07024055 Hartree,=T Unit=T is=T Angstrom=T energy=-137.9682728424501 pbc="F F F"
O       -5.83519462     -30.81319899     -30.32253537      -0.47275433       0.28717034       0.51845127
H       -5.19554288     -31.24656048     -30.87291089       0.35911511      -0.30342365      -0.10626769
H       -5.77048573     -31.14235167     -29.41616653       0.11363922       0.01625330      -0.41218358
3
Properties=species:S:1:pos:R:3:forces:R:3 #=T ORCA=T AIMD=T Position=T Step=T 3030,=T t=1515.0 fs,=T E_Pot=-5.07015702 Hartree,=T Unit=T is=T Angstrom=T energy=-137.96599987537547 pbc="F F F"
O       -2.29371074     -12.15805533     -12.04844488      -0.42187389      -0.10643553      -0.40934706
H       -2.92283096     -11.98895511     -12.76062305       0.04753189      -0.27547414       0.13533053
H       -1.89528500     -11.31006793     -11.89381468       0.37434200       0.38190967       0.27401653
3
Properties=species:S:1:pos:R:3:forces:R:3 #=T ORCA=T AIMD=T Position=T Step=T 9660,=T t=4830.0 fs,=T E_Pot=-5.07041937 Hartree,=T Unit=T is=T Angstrom=T energy=-137.97313878249895 pbc="F F F"
O       -7.49501631     -39.94830754     -39.05048255       0.13855605       0.21898611      -0.33245362
H       -8.05503956     -39.86402502     -39.82915693      -0.03252016      -0.08906695       0.16049734
H       -6.69166983     -39.46027629     -39.26671571      -0.10603588      -0.12991916       0.17195629
3
Properties=species:S:1:pos:R:3:forces:R:3 #=T ORCA=T AIMD=T Position=T Step=T 7590,=T t=3795.0 fs,=T E_Pot=-5.07023153 Hartree,=T Unit=T is=T Angstrom=T energy=-137.96802739574815 pbc="F F F"
O       -5.85507537     -31.14079371     -30.66188059      -0.27231885       0.12515720      -0.61528193
H       -6.31222488     -31.94206423     -30.94059841       0.18771363       0.12995947       0.26287854
H       -5.45757834     -31.26376239     -29.80830602       0.08460522      -0.25511666       0.35240339
3
Properties=species:S:1:pos:R:3:forces:R:3 #=T ORCA=T AIMD=T Position=T Step=T 1350,=T t=675.0 fs,=T E_Pot=-5.07027153 Hartree,=T Unit=T is=T Angstrom=T energy=-137.96911585118912 pbc="F F F"
O       -0.97121367      -5.19225912      -5.30739439       0.42717992      -0.05932513      -0.31561728
H       -0.92149820      -4.74494656      -6.16297946      -0.20708585      -0.10323982       0.39096932
H       -1.79340630      -4.98251549      -4.87220741      -0.22009407       0.16256496      -0.07535204
3
Properties=species:S:1:pos:R:3:forces:R:3 #=T ORCA=T AIMD=T Position=T Step=T 2770,=T t=1385.0 fs,=T E_Pot=-5.07015046 Hartree,=T Unit=T is=T Angstrom=T energy=-137.96582136868315 pbc="F F F"
O       -2.16544888     -11.00527440     -11.00777016       0.46408688       0.78138578      -0.09112566
H       -1.41991443     -10.41586989     -11.21491250      -0.50031805      -0.17540080       0.15909326
H       -1.84257262     -11.87584838     -11.20019289       0.03623117      -0.60598498      -0.06796760
3
Properties=species:S:1:pos:R:3:forces:R:3 #=T ORCA=T AIMD=T Position=T Step=T 9220,=T t=4610.0 fs,=T E_Pot=-5.07029766 Hartree,=T Unit=T is=T Angstrom=T energy=-137.96982688470592 pbc="F F F"
O       -7.14541730     -38.03803440     -37.35953584      -0.50579212       0.11222170      -0.02443649
H       -7.82378552     -38.14189751     -36.67695194       0.44428487      -0.02018725      -0.19897776
H       -6.30028326     -38.32976281     -37.02565063       0.06150725      -0.09203445       0.22341425
3
Properties=species:S:1:pos:R:3:forces:R:3 #=T ORCA=T AIMD=T Position=T Step=T 8110,=T t=4055.0 fs,=T E_Pot=-5.07040293 Hartree,=T Unit=T is=T Angstrom=T energy=-137.97269142731272 pbc="F F F"
O       -6.31004160     -33.39236109     -32.71378657       0.32673004       0.11424587       0.30503351
H       -6.42989024     -33.48338639     -33.65810668       0.09364858       0.02087062      -0.11373581
H       -5.39814263     -33.11358957     -32.54159790      -0.42037862      -0.13511649      -0.19129770
3
Properties=species:S:1:pos:R:3:forces:R:3 #=T ORCA=T AIMD=T Position=T Step=T 8850,=T t=4425.0 fs,=T E_Pot=-5.07030141 Hartree,=T Unit=T is=T Angstrom=T energy=-137.96992892740352 pbc="F F F"
O       -6.78446111     -36.51377569     -35.76741034      -0.12646446       0.43813441       0.04644346
H       -7.23883408     -35.66352391     -35.75297601       0.24039540      -0.04377490       0.07786925
H       -7.42692951     -37.11819192     -36.12741923      -0.11393094      -0.39435951      -0.12431271
3
Properties=species:S:1:pos:R:3:forces:R:3 #=T ORCA=T AIMD=T Position=T Step=T 2220,=T t=1110.0 fs,=T E_Pot=-5.07003921 Hartree,=T Unit=T is=T Angstrom=T energy=-137.96279410198795 pbc="F F F"
O       -1.64158079      -8.76646799      -8.76706496      -0.36779798       0.28558078      -0.42182599
H       -1.96640018      -7.86595200      -8.88397007       0.20536618      -0.02228364       0.28962131
H       -2.03273575      -9.22634292      -9.51675600       0.16243180      -0.26329714       0.13220468
3
Properties=species:S:1:pos:R:3:forces:R:3 #=T ORCA=T AIMD=T Position=T Step=T 1420,=T t=710.0 fs,=T E_Pot=-5.07012741 Hartree,=T Unit=T is=T Angstrom=T energy=-137.96519414623526 pbc="F F F"
O       -1.05686249      -5.49965955      -5.58777231      -0.08975586      -0.75136548      -0.82911180
H       -1.27442149      -5.27419060      -6.50502667       0.10143868       0.00566733       0.48681270
H       -1.03688097      -4.71185244      -5.07197796      -0.01168282       0.74569815       0.34229910
3
Properties=species:S:1:pos:R:3:forces:R:3 #=T ORCA=T AIMD=T Position=T Step=T 2630,=T t=1315.0 fs,=T E_Pot=-5.07005394 Hartree,=T Unit=T is=T Angstrom=T energy=-137.96319492570407 pbc="F F F"
O       -2.00974067     -10.40858433     -10.51501652      -0.31212910       0.37550012      -0.41104979
H       -2.59872908     -10.48155255      -9.76282103       0.24030441      -0.17902845       0.10129398
H       -1.20398286     -10.90050066     -10.38724688       0.07182470      -0.19647167       0.30975580
3
Properties=species:S:1:pos:R:3:forces:R:3 #=T ORCA=T AIMD=T Position=T Step=T 1950,=T t=975.0 fs,=T E_Pot=-5.0700556 Hartree,=T Unit=T is=T Angstrom=T energy=-137.96324009660486 pbc="F F F"
O       -1.43053399      -7.58903109      -7.75551384      -0.11772925      -0.02443437      -1.22442569
H       -2.09387774      -8.10152567      -8.24476080       0.32209001       0.24079372       0.37526818
H       -1.54477178      -7.73612086      -6.83380690      -0.20436076      -0.21635935       0.84915752
3
Properties=species:S:1:pos:R:3:forces:R:3 #=T ORCA=T AIMD=T Position=T Step=T 6300,=T t=3150.0 fs,=T E_Pot=-5.07044843 Hartree,=T Unit=T is=T Angstrom=T energy=-137.97392954537682 pbc="F F F"
O       -4.82144169     -25.79480986     -25.31049256      -0.00745775       0.18742684       0.11894688
H       -5.12401285     -24.88131904     -25.38090934       0.05256547      -0.30194632      -0.09259565
H       -5.01973552     -26.25218059     -26.12948102      -0.04510772       0.11451949      -0.02635123
3
Properties=species:S:1:pos:R:3:forces:R:3 #=T ORCA=T AIMD=T Position=T Step=T 2620,=T t=1310.0 fs,=T E_Pot=-5.07031056 Hartree,=T Unit=T is=T Angstrom=T energy=-137.97017791158567 pbc="F F F"
O       -2.00028489     -10.36055925     -10.47345674       0.37591765      -0.08749529      -0.10586635
H       -2.64054492     -10.56533385      -9.79007799       0.13963068      -0.09921579       0.05554909
H       -1.17445732     -10.83832356     -10.29997607      -0.51554833       0.18671108       0.05031725
3
Properties=species:S:1:pos:R:3:forces:R:3 #=T ORCA=T AIMD=T Position=T Step=T 5020,=T t=2510.0 fs,=T E_Pot=-5.07011734 Hartree,=T Unit=T is=T Angstrom=T energy=-137.96492012757804 pbc="F F F"
O       -3.89243293     -20.35984279     -20.15790885      -0.28027054      -0.05024337      -0.81881554
H       -3.58486547     -21.02357499     -20.79458712      -0.03713571       0.28251323       0.50907164
H       -3.46342181     -20.47768284     -19.32046447       0.31740625      -0.23226986       0.30974390
3
Properties=species:S:1:pos:R:3:forces:R:3 #=T ORCA=T AIMD=T Position=T Step=T 2210,=T t=1105.0 fs,=T E_Pot=-5.07054038 Hartree,=T Unit=T is=T Angstrom=T energy=-137.97643163232178 pbc="F F F"
O       -1.64094167      -8.72454697      -8.72682623      -0.00393525      -0.00111907      -0.00863870
H       -1.99104341      -7.83286635      -8.78781169       0.00462867      -0.04281631      -0.02133003
H       -1.88079451      -9.18603011      -9.53376056      -0.00069343       0.04393538       0.02996873
3
Properties=species:S:1:pos:R:3:forces:R:3 #=T ORCA=T AIMD=T Position=T Step=T 9330,=T t=4665.0 fs,=T E_Pot=-5.07037765 Hartree,=T Unit=T is=T Angstrom=T energy=-137.97200352347403 pbc="F F F"
O       -7.28573964     -38.54142545     -37.75080707       0.38822358       0.38538915       0.06333185
H       -6.89815088     -37.67619539     -37.55110279      -0.28074573      -0.29044393      -0.04913475
H       -6.54114474     -39.09637431     -37.99691416      -0.10747784      -0.09494522      -0.01419710
3
Properties=species:S:1:pos:R:3:forces:R:3 #=T ORCA=T AIMD=T Position=T Step=T 5920,=T t=2960.0 fs,=T E_Pot=-5.07018401 Hartree,=T Unit=T is=T Angstrom=T energy=-137.96673431068427 pbc="F F F"
O       -4.59419454     -24.13434541     -23.82958822      -0.74442227       0.10175506       0.16759736
H       -3.69359267     -24.14504641     -24.12447145       0.49386354      -0.18723696      -0.01305128
H       -4.75436672     -24.84088223     -23.19648334       0.25055873       0.08548190      -0.15454609
3
Properties=species:S:1:pos:R:3:forces:R:3 #=T ORCA=T AIMD=T Position=T Step=T 8450,=T t=4225.0 fs,=T E_Pot=-5.07022991 Hartree,=T Unit=T is=T Angstrom=T energy=-137.9679833133028 pbc="F F F"
O       -6.56497413     -34.76325498     -34.13735122       0.28662570       0.65225069      -0.43827054
H       -5.81063475     -34.83133304     -34.74000325      -0.32801623      -0.13273152       0.31215507
H       -6.73357288     -35.60568632     -33.73795955       0.04139053      -0.51951917       0.12611547
3
Properties=species:S:1:pos:R:3:forces:R:3 #=T ORCA=T AIMD=T Position=T Step=T 2290,=T t=1145.0 fs,=T E_Pot=-5.06991642 Hartree,=T Unit=T is=T Angstrom=T energy=-137.959452815898 pbc="F F F"
O       -1.68503010      -9.06550545      -9.09436225      -0.38058816      -0.75928750       0.20849176
H       -1.67975110      -8.13665193      -9.30328899      -0.27744740       0.24219182      -0.02653242
H       -2.59268392      -9.38517598      -8.93168078       0.65803557       0.51709568      -0.18195934
3
Properties=species:S:1:pos:R:3:forces:R:3 #=T ORCA=T AIMD=T Position=T Step=T 4630,=T t=2315.0 fs,=T E_Pot=-5.0704339 Hartree,=T Unit=T is=T Angstrom=T energy=-137.9735341639379 pbc="F F F"
O       -3.53939750     -18.82759486     -18.53217630       0.11996119       0.19930424      -0.08731251
H       -4.38442221     -18.47031388     -18.82524722       0.23086116      -0.00018330       0.02983004
H       -2.84360217     -18.19798764     -18.76719457      -0.35082235      -0.19912094       0.05748247
3
Properties=species:S:1:pos:R:3:forces:R:3 #=T ORCA=T AIMD=T Position=T Step=T 1760,=T t=880.0 fs,=T E_Pot=-5.07028141 Hartree,=T Unit=T is=T Angstrom=T energy=-137.96938469968305 pbc="F F F"
O       -1.36380373      -6.81804318      -7.01739123      -0.22711924      -0.79309387       0.15081951
H       -0.67695327      -6.35263736      -6.54688105       0.17808943       0.10782029       0.12815352
H       -1.41520115      -7.71649249      -6.63862694       0.04902981       0.68527358      -0.27897303
3
Properties=species:S:1:pos:R:3:forces:R:3 #=T ORCA=T AIMD=T Position=T Step=T 8540,=T t=4270.0 fs,=T E_Pot=-5.07042789 Hartree,=T Unit=T is=T Angstrom=T energy=-137.9733706235079 pbc="F F F"
O       -6.55149428     -35.15672790     -34.51370144       0.19416871       0.11718396      -0.56579365
H       -6.97117869     -35.48673114     -35.31627805       0.07942841       0.06401698       0.19313003
H       -7.04798911     -35.48315908     -33.77415173      -0.27359711      -0.18120094       0.37266362
3
Properties=species:S:1:pos:R:3:forces:R:3 #=T ORCA=T AIMD=T Position=T Step=T 2710,=T t=1355.0 fs,=T E_Pot=-5.069982 Hartree,=T Unit=T is=T Angstrom=T energy=-137.9612373385935 pbc="F F F"
O       -2.11060631     -10.76564968     -10.82019986      -0.04995633      -0.62299703      -0.39808007
H       -1.78585817     -10.10866209     -10.21087915       0.29195520      -0.03791111       0.18126506
H       -1.51931528     -11.53698003     -10.85809301      -0.24199888       0.66090814       0.21681501
3
Properties=species:S:1:pos:R:3:forces:R:3 #=T ORCA=T AIMD=T Position=T Step=T 3230,=T t=1615.0 fs,=T E_Pot=-5.07010015 Hartree,=T Unit=T is=T Angstrom=T energy=-137.96445236385227 pbc="F F F"
O       -2.40792865     -12.91139729     -12.90726482       0.28176235       0.95036987       0.05263251
H       -3.10852565     -12.38754463     -12.50173149       0.09449687      -0.33431365      -0.10368491
H       -2.66203682     -13.81835386     -12.96400261      -0.37625922      -0.61605622       0.05105240
3
Properties=species:S:1:pos:R:3:forces:R:3 #=T ORCA=T AIMD=T Position=T Step=T 2490,=T t=1245.0 fs,=T E_Pot=-5.07022554 Hartree,=T Unit=T is=T Angstrom=T energy=-137.96786439954587 pbc="F F F"
O       -1.94158988      -9.82451347      -9.89466421       0.45498120       0.14060340       0.66091437
H       -1.76726860     -10.39247103     -10.64197198       0.11829079      -0.12984872      -0.09591521
H       -1.18752707      -9.88807541      -9.27651841      -0.57327199      -0.01075468      -0.56499916
3
Properties=species:S:1:pos:R:3:forces:R:3 #=T ORCA=T AIMD=T Position=T Step=T 6780,=T t=3390.0 fs,=T E_Pot=-5.0701432 Hartree,=T Unit=T is=T Angstrom=T energy=-137.96562381402063 pbc="F F F"
O       -5.26636626     -27.77350578     -27.36190595      -0.15417028      -0.48843037      -0.71826621
H       -5.11861190     -27.23447810     -26.59883792       0.25119537       0.18570679       0.52775887
H       -4.66751437     -28.52923911     -27.36588134      -0.09702509       0.30272358       0.19050734
3
Properties=species:S:1:pos:R:3:forces:R:3 #=T ORCA=T AIMD=T Position=T Step=T 9790,=T t=4895.0 fs,=T E_Pot=-5.07023104 Hartree,=T Unit=T is=T Angstrom=T energy=-137.968014062169 pbc="F F F"
O       -7.54145890     -40.41334759     -39.64177551      -0.08872996      -0.69040346      -0.09673595
H       -8.46582172     -40.40297092     -39.38413534      -0.03288147       0.21266071       0.04646214
H       -7.36784612     -41.34496220     -39.85349006       0.12161143       0.47774275       0.05027381