3
Properties=species:S:1:pos:R:3:forces:R:3 #=T ORCA=T AIMD=T Position=T Step=T 5090,=T t=2545.0 fs,=T E_Pot=-5.06998778 Hartree,=T Unit=T is=T Angstrom=T energy=-137.96139462040472 pbc="F F F"
O       -3.91349892     -20.64060060     -20.46724817      -0.55488773      -0.88572117       0.02692393
H       -4.45608706     -21.45524225     -20.46826295       0.28098299       0.72145324      -0.15869647
H       -3.23184641     -20.82523198     -19.82392162       0.27390474       0.16426793       0.13177254
3
Properties=species:S:1:pos:R:3:forces:R:3 #=T ORCA=T AIMD=T Position=T Step=T 3560,=T t=1780.0 fs,=T E_Pot=-5.0704221 Hartree,=T Unit=T is=T Angstrom=T energy=-137.9732130695828 pbc="F F F"
O       -2.69621829     -14.28463010     -14.27805571      -0.48213774      -0.07754442      -0.39310417
H       -3.56755036     -14.65610338     -14.09280102       0.25550627       0.10109909      -0.02400222
H       -2.19512234     -14.30660879     -13.47237122       0.22663147      -0.02355467       0.41710639
3
Properties=species:S:1:pos:R:3:forces:R:3 #=T ORCA=T AIMD=T Position=T Step=T 4600,=T t=2300.0 fs,=T E_Pot=-5.07014048 Hartree,=T Unit=T is=T Angstrom=T energy=-137.96554979905062 pbc="F F F"
O       -3.50646362     -18.70369550     -18.42706851      -0.48086392      -0.59540291      -0.17465827
H       -4.34901125     -18.46194336     -18.83536923       0.43026750       0.12280699       0.18890801
H       -2.98476941     -17.93161773     -18.24761774       0.05059642       0.47259592      -0.01424974
3
Properties=species:S:1:pos:R:3:forces:R:3 #=T ORCA=T AIMD=T Position=T Step=T 9890,=T t=4945.0 fs,=T E_Pot=-5.0704855 Hartree,=T Unit=T is=T Angstrom=T energy=-137.97493827145675 pbc="F F F"
O       -7.67505062     -40.86914779     -40.10879898       0.07183875       0.42865414       0.00198972
H       -7.38573309     -40.30142150     -39.38635730      -0.05567483      -0.11964136      -0.13261489
H       -7.73122508     -41.75690413     -39.76960863      -0.01616392      -0.30901278       0.13062517
3
Properties=species:S:1:pos:R:3:forces:R:3 #=T ORCA=T AIMD=T Position=T Step=T 7370,=T t=3685.0 fs,=T E_Pot=-5.07047126 Hartree,=T Unit=T is=T Angstrom=T energy=-137.97455078131975 pbc="F F F"
O       -5.66894929     -30.26851445     -29.79046811       0.11556771       0.33918161      -0.10092136
H       -5.64250979     -29.49658298     -29.21396444      -0.03827698      -0.23759520      -0.07473687
H       -6.00344728     -31.00918933     -29.29021771      -0.07729072      -0.10158641       0.17565823
3
Properties=species:S:1:pos:R:3:forces:R:3 #=T ORCA=T AIMD=T Position=T Step=T 1510,=T t=755.0 fs,=T E_Pot=-5.06994186 Hartree,=T Unit=T is=T Angstrom=T energy=-137.96014507355846 pbc="F F F"
O       -1.15473511      -5.82477800      -5.91345922      -1.02891476      -0.27954151       0.26124346
H       -1.71797757      -5.85190347      -6.69777868       0.43382775       0.08040062       0.16579265
H       -0.26983497      -5.58497777      -6.13359938       0.59508701       0.19914089      -0.42703611
3
Properties=species:S:1:pos:R:3:forces:R:3 #=T ORCA=T AIMD=T Position=T Step=T 4010,=T t=2005.0 fs,=T E_Pot=-5.07034803 Hartree,=T Unit=T is=T Angstrom=T energy=-137.97119752222 pbc="F F F"
O       -3.11241600     -16.21748193     -16.01491708       0.40077105       0.30595319      -0.39437018
H       -3.00764045     -16.09170060     -16.97171362      -0.12084023      -0.11048661       0.45883640
H       -2.38738286     -15.72416003     -15.60667193      -0.27993082      -0.19546657      -0.06446622
3
Properties=species:S:1:pos:R:3:forces:R:3 #=T ORCA=T AIMD=T Position=T Step=T 1940,=T t=970.0 fs,=T E_Pot=-5.06977949 Hartree,=T Unit=T is=T Angstrom=T energy=-137.95572676080968 pbc="F F F"
O       -1.43061075      -7.54079506      -7.71273746       0.37482854       0.35789056       0.83158703
H       -1.95631891      -8.10128984      -8.27209721      -0.27828604      -0.33219773       0.07192791
H       -1.54386327      -7.76422819      -6.76860291      -0.09654250      -0.02569282      -0.90351493
3
Properties=species:S:1:pos:R:3:forces:R:3 #=T ORCA=T AIMD=T Position=T Step=T 3200,=T t=1600.0 fs,=T E_Pot=-5.06999486 Hartree,=T Unit=T is=T Angstrom=T energy=-137.96158727701777 pbc="F F F"
O       -2.38027746     -12.77790428     -12.75188324       0.00041260      -0.88641938      -0.38995986
H       -3.25724339     -12.43512279     -12.62071488      -0.34773634       0.39675537       0.16676319
H       -2.53690690     -13.65732791     -13.14227730       0.34732374       0.48966401       0.22319667
3
Properties=species:S:1:pos:R:3:forces:R:3 #=T ORCA=T AIMD=T Position=T Step=T 3320,=T t=1660.0 fs,=T E_Pot=-5.07021022 Hartree,=T Unit=T is=T Angstrom=T energy=-137.96744752111195 pbc="F F F"
O       -2.54706672     -13.30593163     -13.31182262       0.35123448       0.85091848      -0.31914923
H       -2.05774865     -12.62215476     -12.82743248      -0.27239074      -0.43753021      -0.16429556
H       -2.74989311     -14.01631559     -12.72197119      -0.07884373      -0.41338828       0.48344478
3
Properties=species:S:1:pos:R:3:forces:R:3 #=T ORCA=T AIMD=T Position=T Step=T 6250,=T t=3125.0 fs,=T E_Pot=-5.07022725 Hartree,=T Unit=T is=T Angstrom=T energy=-137.96791093101598 pbc="F F F"
O       -4.80921809     -25.60144365     -25.10675241       0.54716460      -0.45690077      -0.48482648
H       -5.30517798     -24.79688407     -25.14891979      -0.40648626       0.55269361       0.09709061
H       -4.33471297     -25.65458185     -25.95044678      -0.14067835      -0.09579284       0.38773587
3
Properties=species:S:1:pos:R:3:forces:R:3 #=T ORCA=T AIMD=T Position=T Step=T 1300,=T t=650.0 fs,=T E_Pot=-5.06942664 Hartree,=T Unit=T is=T Angstrom=T energy=-137.946125223251 pbc="F F F"
O       -0.93584400      -4.96200482      -5.08958417      -0.43136892      -0.70401805       0.67965197
H       -0.76446690      -4.35697228      -5.80128692      -0.31894833       0.13165003      -0.38289548
H       -1.82927455      -5.35628900      -5.12620634       0.75031725       0.57236802      -0.29675650
3
Properties=species:S:1:pos:R:3:forces:R:3 #=T ORCA=T AIMD=T Position=T Step=T 7050,=T t=3525.0 fs,=T E_Pot=-5.07042285 Hartree,=T Unit=T is=T Angstrom=T energy=-137.97323347812232 pbc="F F F"
O       -5.38725585     -28.96332702     -28.41102019      -0.32633959       0.32950918       0.04959438
H       -5.84535701     -28.81257710     -29.24432039       0.12837384      -0.10396299       0.05479103
H       -5.79643285     -28.35430633     -27.78165303       0.19796575      -0.22554619      -0.10438540
3
Properties=species:S:1:pos:R:3:forces:R:3 #=T ORCA=T AIMD=T Position=T Step=T 3310,=T t=1655.0 fs,=T E_Pot=-5.07002277 Hartree,=T Unit=T is=T Angstrom=T energy=-137.9623467468017 pbc="F F F"
O       -2.52873162     -13.26298827     -13.27152534      -0.32100081      -0.70805757      -0.36598713
H       -2.18883962     -12.55170997     -12.74346453       0.10871386       0.15026938       0.45109207
H       -2.77136659     -14.02416773     -12.72244750       0.21228694       0.55778819      -0.08510494
3
Properties=species:S:1:pos:R:3:forces:R:3 #=T ORCA=T AIMD=T Position=T Step=T 3880,=T t=1940.0 fs,=T E_Pot=-5.07037939 Hartree,=T Unit=T is=T Angstrom=T energy=-137.97205087128572 pbc="F F F"
O       -2.92122239     -15.68448313     -15.50252237      -0.55171931       0.05084529       0.17339214
H       -2.78594358     -14.95102267     -16.10732882      -0.03147847      -0.03822178       0.04089376
H       -3.84082136     -15.63384717     -15.18779481       0.58319779      -0.01262351      -0.21428590
3
Properties=species:S:1:pos:R:3:forces:R:3 #=T ORCA=T AIMD=T Position=T Step=T 1340,=T t=670.0 fs,=T E_Pot=-5.06963006 Hartree,=T Unit=T is=T Angstrom=T energy=-137.95166056339608 pbc="F F F"
O       -0.96178749      -5.14415803      -5.26599180      -0.22291778      -0.48817663       0.95188177
H       -0.87313475      -4.68677215      -6.08998111      -0.31088692       0.33987184      -0.39958896
H       -1.85468711      -5.06939701      -4.88842633       0.53380469       0.14830479      -0.55229281
3
Properties=species:S:1:pos:R:3:forces:R:3 #=T ORCA=T AIMD=T Position=T Step=T 5520,=T t=2760.0 fs,=T E_Pot=-5.07007793 Hartree,=T Unit=T is=T Angstrom=T energy=-137.9638477268548 pbc="F F F"
O       -4.22480626     -22.55786186     -22.16030989       0.06578279       0.46353076       0.77286432
H       -4.45242032     -22.30178080     -23.04176854      -0.14726754      -0.01608631      -0.74551194
H       -4.28238695     -21.73390450     -21.65157242       0.08148475      -0.44744445      -0.02735238
3
Properties=species:S:1:pos:R:3:forces:R:3 #=T ORCA=T AIMD=T Position=T Step=T 4880,=T t=2440.0 fs,=T E_Pot=-5.0701362 Hartree,=T Unit=T is=T Angstrom=T energy=-137.96543333431845 pbc="F F F"
O       -3.73815906     -19.85263821     -19.63341521      -0.32895589      -0.41827832       0.43918114
H       -3.41465658     -18.97504481     -19.47741816       0.29144392       0.57241153      -0.13460811
H       -4.13438841     -20.10645999     -18.78914692       0.03751197      -0.15413321      -0.30457302
3
Properties=species:S:1:pos:R:3:forces:R:3 #=T ORCA=T AIMD=T Position=T Step=T 1290,=T t=645.0 fs,=T E_Pot=-5.07039681 Hartree,=T Unit=T is=T Angstrom=T energy=-137.97252489363026 pbc="F F F"
O       -0.93211952      -4.91885355      -5.04153579       0.55704374       0.37547995       0.03805193
H       -0.77412584      -4.29201862      -5.75519345      -0.07109261      -0.13180220       0.11193141
H       -1.74253990      -5.37409681      -5.22363629      -0.48595113      -0.24367776      -0.14998334
3
Properties=species:S:1:pos:R:3:forces:R:3 #=T ORCA=T AIMD=T Position=T Step=T 9480,=T t=4740.0 fs,=T E_Pot=-5.07032912 Hartree,=T Unit=T is=T Angstrom=T energy=-137.97068295491027 pbc="F F F"
O       -7.29345749     -39.16767240     -38.32747784      -0.46419894      -0.24962210       0.21789730
H       -7.20585676     -38.67738263     -39.14503824      -0.10890117       0.00556108      -0.06121865
H       -8.21522903     -39.46620648     -38.24018186       0.57310010       0.24406103      -0.15667866
3
Properties=species:S:1:pos:R:3:forces:R:3 #=T ORCA=T AIMD=T Position=T Step=T 3530,=T t=1765.0 fs,=T E_Pot=-5.07000291 Hartree,=T Unit=T is=T Angstrom=T energy=-137.96180632867527 pbc="F F F"
O       -2.67935034     -14.13990301     -14.14299720       0.65604846       0.52103223       0.33709171
H       -3.34678251     -14.80206939     -14.27202837      -0.23132938      -0.37378747       0.18893095
H       -2.26805596     -14.22404966     -13.26642188      -0.42471908      -0.14724476      -0.52602267
3
Properties=species:S:1:pos:R:3:forces:R:3 #=T ORCA=T AIMD=T Position=T Step=T 5300,=T t=2650.0 fs,=T E_Pot=-5.06996481 Hartree,=T Unit=T is=T Angstrom=T energy=-137.96076957486773 pbc="F F F"
O       -4.11705344     -21.58802377     -21.24057988       0.25754472      -0.69125855      -0.36096475
H       -3.74460348     -20.74840074     -21.47511042       0.06635022       0.70184477       0.04453978
H       -3.63574942     -22.20735908     -21.81004567      -0.32389494      -0.01058622       0.31642497
3
Properties=species:S:1:pos:R:3:forces:R:3 #=T ORCA=T AIMD=T Position=T Step=T 4980,=T t=2490.0 fs,=T E_Pot=-5.0699802 Hartree,=T Unit=T is=T Angstrom=T energy=-137.96118835809864 pbc="F F F"
O       -3.87550714     -20.21684322     -20.00078027       0.12240069       0.01902264      -0.76419162
H       -3.13822129     -20.41031877     -20.60818804      -0.41879881       0.08401299       0.68078665
H       -3.62219783     -20.36929133     -19.09428379       0.29639812      -0.10303563       0.08340496
3
Properties=species:S:1:pos:R:3:forces:R:3 #=T ORCA=T AIMD=T Position=T Step=T 4060,=T t=2030.0 fs,=T E_Pot=-5.06985509 Hartree,=T Unit=T is=T Angstrom=T energy=-137.95778394159314 pbc="F F F"
O       -3.15143881     -16.37048301     -16.20414312       0.96508433      -0.03296288       0.07218159
H       -3.28823144     -16.71819919     -17.08095007      -0.38560942      -0.10639499      -0.32286766
H       -2.18105199     -16.39758332     -16.11668554      -0.57947491       0.13935787       0.25068607
3
Properties=species:S:1:pos:R:3:forces:R:3 #=T ORCA=T AIMD=T Position=T Step=T 7350,=T t=3675.0 fs,=T E_Pot=-5.07036702 Hartree,=T Unit=T is=T Angstrom=T energy=-137.97171426644059 pbc="F F F"
O       -5.63326192     -30.17779278     -29.70240402      -0.15226477      -0.18874566       0.17790525
H       -5.90713362     -29.47121843     -29.11781242       0.05089687       0.25144908      -0.01182219
H       -6.02524806     -30.96942052     -29.32172767       0.10136790      -0.06270342      -0.16608306
3
Properties=species:S:1:pos:R:3:forces:R:3 #=T ORCA=T AIMD=T Position=T Step=T 9020,=T t=4510.0 fs,=T E_Pot=-5.07028496 Hartree,=T Unit=T is=T Angstrom=T energy=-137.96948130010344 pbc="F F F"
O       -7.03931970     -37.22314353     -36.51043397       0.59862984       0.11829104      -0.10552275
H       -6.20045218     -37.01458989     -36.94898168      -0.42217141      -0.07175676      -0.00483103
H       -6.80353269     -37.31880438     -35.58568856      -0.17645843      -0.04653428       0.11035378
3
Properties=species:S:1:pos:R:3:forces:R:3 #=T ORCA=T AIMD=T Position=T Step=T 7720,=T t=3860.0 fs,=T E_Pot=-5.07025664 Hartree,=T Unit=T is=T Angstrom=T energy=-137.96871067365123 pbc="F F F"
O       -5.98116316     -31.78295702     -31.20029196      -0.70909990       0.11190587      -0.02375059
H       -6.52070169     -31.11926429     -30.74378942       0.42729170      -0.28665469      -0.16551434
H       -5.06725801     -31.67377888     -30.96180722       0.28180820       0.17474881       0.18926493
3
Properties=species:S:1:pos:R:3:forces:R:3 #=T ORCA=T AIMD=T Position=T Step=T 2480,=T t=1240.0 fs,=T E_Pot=-5.06967129 Hartree,=T Unit=T is=T Angstrom=T energy=-137.95278248884185 pbc="F F F"
O       -1.94123026      -9.78827207      -9.85152499      -0.00893133      -0.42849828      -0.99292031
H       -1.60980631     -10.27036540     -10.62882787      -0.46096985       0.29196357       0.21177080
H       -1.21268867      -9.84359086      -9.25358705       0.46990119       0.13653470       0.78114951
3
Properties=species:S:1:pos:R:3:forces:R:3 #=T ORCA=T AIMD=T Position=T Step=T 2670,=T t=1335.0 fs,=T E_Pot=-5.06981916 Hartree,=T Unit=T is=T Angstrom=T energy=-137.95680623649326 pbc="F F F"
O       -2.05894915     -10.59080185     -10.67625985       0.25214401      -0.42293608      -0.75260991
H       -2.23402767     -10.21267276      -9.82299952       0.18277285      -0.05371387       0.44441325
H       -1.33926741     -11.24225694     -10.64878132      -0.43491686       0.47664995       0.30819666
3
Properties=species:S:1:pos:R:3:forces:R:3 #=T ORCA=T AIMD=T Position=T Step=T 4190,=T t=2095.0 fs,=T E_Pot=-5.07007699 Hartree,=T Unit=T is=T Angstrom=T energy=-137.96382214815193 pbc="F F F"
O       -3.20344595     -16.88177266     -16.81772912       0.30128223      -0.73272987       0.29498449
H       -3.84480662     -17.05462805     -16.12306865      -0.12431159       0.22783843      -0.06484953
H       -2.60362202     -17.64593579     -16.76067916      -0.17697064       0.50489144      -0.23013496
3
Properties=species:S:1:pos:R:3:forces:R:3 #=T ORCA=T AIMD=T Position=T Step=T 4870,=T t=2435.0 fs,=T E_Pot=-5.07004423 Hartree,=T Unit=T is=T Angstrom=T energy=-137.9629307031458 pbc="F F F"
O       -3.71972315     -19.81177162     -19.59155761       0.06875851       0.84780802       0.44077905
H       -3.50443059     -18.87978146     -19.39331434      -0.04159677      -0.62917308      -0.34643410
H       -4.19802404     -20.10211035     -18.81058186      -0.02716174      -0.21863494      -0.09434495
3
Properties=species:S:1:pos:R:3:forces:R:3 #=T ORCA=T AIMD=T Position=T Step=T 6470,=T t=3235.0 fs,=T E_Pot=-5.07033676 Hartree,=T Unit=T is=T Angstrom=T energy=-137.9708908498995 pbc="F F F"
O       -4.99940362     -26.54036218     -26.07478123      -0.31164858      -0.34318876       0.68160855
H       -4.59703839     -25.86326913     -26.59864324       0.27169304       0.46296035      -0.34495701
H       -5.09551112     -26.19423565     -25.17666302       0.03995554      -0.11977159      -0.33665153
3
Properties=species:S:1:pos:R:3:forces:R:3 #=T ORCA=T AIMD=T Position=T Step=T 1640,=T t=820.0 fs,=T E_Pot=-5.0696486 Hartree,=T Unit=T is=T Angstrom=T energy=-137.95216506249295 pbc="F F F"
O       -1.20618334      -6.30034111      -6.50945529      -0.52502433       1.30513745       0.19557777
H       -2.05557145      -6.27190937      -6.04420714       0.46201203      -0.31397755      -0.23173391
H       -0.89453916      -7.17856696      -6.61815151       0.06301230      -0.99115990       0.03615614
3
Properties=species:S:1:pos:R:3:forces:R:3 #=T ORCA=T AIMD=T Position=T Step=T 3300,=T t=1650.0 fs,=T E_Pot=-5.07028918 Hartree,=T Unit=T is=T Angstrom=T energy=-137.96959613215245 pbc="F F F"
O       -2.51191495     -13.22259606     -13.23566184       0.20608017       0.73119973       0.34514282
H       -2.32276054     -12.50180340     -12.60776745      -0.10507841      -0.41939629      -0.46771983
H       -2.76598018     -13.97136926     -12.70464869      -0.10100177      -0.31180344       0.12257701
3
Properties=species:S:1:pos:R:3:forces:R:3 #=T ORCA=T AIMD=T Position=T Step=T 3680,=T t=1840.0 fs,=T E_Pot=-5.07007075 Hartree,=T Unit=T is=T Angstrom=T energy=-137.96365234910314 pbc="F F F"
O       -2.84424154     -14.86467473     -14.70643442       0.60553028       0.51652678      -0.09685072
H       -3.16368503     -13.97672242     -14.51530918      -0.23536573      -0.17367665       0.04091445
H       -1.91207710     -14.71576106     -14.93351410      -0.37016455      -0.34285013       0.05593626
3
Properties=species:S:1:pos:R:3:forces:R:3 #=T ORCA=T AIMD=T Position=T Step=T 6710,=T t=3355.0 fs,=T E_Pot=-5.07035056 Hartree,=T Unit=T is=T Angstrom=T energy=-137.97126636702663 pbc="F F F"
O       -5.18054428     -27.45057312     -27.08375266       0.35086533      -0.18076018      -0.00227363
H       -5.77341168     -27.65019694     -26.36423781      -0.33528480       0.04826878       0.17854029
H       -4.39688509     -27.98224715     -26.90751465      -0.01558053       0.13249140      -0.17626666
3
Properties=species:S:1:pos:R:3:forces:R:3 #=T ORCA=T AIMD=T Position=T Step=T 7760,=T t=3880.0 fs,=T E_Pot=-5.07028832 Hartree,=T Unit=T is=T Angstrom=T energy=-137.96957273036048 pbc="F F F"
O       -6.02812041     -31.95831363     -31.32338539      -0.20676167       0.23589275       0.09432534
H       -6.30164182     -31.05481614     -31.10203295       0.32131380      -0.42461450      -0.15606084
H       -5.10105178     -31.96525461     -31.57476447      -0.11455212       0.18872175       0.06173551
3
Properties=species:S:1:pos:R:3:forces:R:3 #=T ORCA=T AIMD=T Position=T Step=T 7140,=T t=3570.0 fs,=T E_Pot=-5.07029532 Hartree,=T Unit=T is=T Angstrom=T energy=-137.96976321006264 pbc="F F F"
O       -5.50005778     -29.35026954     -28.74805303      -0.17491653       0.41601916      -0.41471173
H       -6.24443657     -29.14367575     -29.33102266       0.14935758      -0.22692615       0.25714425
H       -4.86521465     -28.64494043     -28.91709469       0.02555896      -0.18909301       0.15756748
3
Properties=species:S:1:pos:R:3:forces:R:3 #=T ORCA=T AIMD=T Position=T Step=T 5350,=T t=2675.0 fs,=T E_Pot=-5.07028861 Hartree,=T Unit=T is=T Angstrom=T energy=-137.96958062166243 pbc="F F F"
O       -4.10862282     -21.78534309     -21.42291180       0.12595741       0.34481293      -0.43388794
H       -3.84867990     -21.06977999     -22.02057663      -0.04166582      -0.11120424       0.35893597
H       -4.36212999     -22.49868677     -22.00899892      -0.08429159      -0.23360868       0.07495198
3
Properties=species:S:1:pos:R:3:forces:R:3 #=T ORCA=T AIMD=T Position=T Step=T 1320,=T t=660.0 fs,=T E_Pot=-5.06945358 Hartree,=T Unit=T is=T Angstrom=T energy=-137.9468582979905 pbc="F F F"
O       -0.93963717      -5.05592990      -5.17349917      -1.32629652      -0.16773352       0.15621144
H       -0.89668947      -4.51527390      -5.95574585       0.39608885       0.26324571      -0.35618578
H       -1.90980475      -5.17439140      -5.06543310       0.93020767      -0.09551220       0.19997434
3
Properties=species:S:1:pos:R:3:forces:R:3 #=T ORCA=T AIMD=T Position=T Step=T 8070,=T t=4035.0 fs,=T E_Pot=-5.07045745 Hartree,=T Unit=T is=T Angstrom=T energy=-137.9741749920788 pbc="F F F"
O       -6.26668753     -33.26083597     -32.56620951      -0.02573114       0.03900374      -0.36971574
H       -6.24393057     -33.04586740     -33.51028093       0.02604962      -0.05082009       0.43203683
H       -5.71205485     -32.62772142     -32.10618148      -0.00031848       0.01181635      -0.06232109
3
Properties=species:S:1:pos:R:3:forces:R:3 #=T ORCA=T AIMD=T Position=T Step=T 8920,=T t=4460.0 fs,=T E_Pot=-5.07042016 Hartree,=T Unit=T is=T Angstrom=T energy=-137.97316027949392 pbc="F F F"
O       -6.86665464     -36.82936622     -36.11217591       0.02791070      -0.39363959      -0.08248271
H       -6.81495177     -35.88063796     -36.03185186      -0.09083164       0.21437842       0.12023056
H       -7.52744001     -37.16612833     -35.50099253       0.06292094       0.17926117      -0.03774784
3
Properties=species:S:1:pos:R:3:forces:R:3 #=T ORCA=T AIMD=T Position=T Step=T 8190,=T t=4095.0 fs,=T E_Pot=-5.07037706 Hartree,=T Unit=T is=T Angstrom=T energy=-137.97198746875628 pbc="F F F"
O       -6.33443274     -33.66139379     -33.06396470       0.07067495       0.38580669       0.15612844
H       -7.05074555     -34.20357873     -33.38598308      -0.01224643      -0.22908420      -0.08776411
H       -5.51085098     -34.14721642     -33.10880524      -0.05842852      -0.15672249      -0.06836433
3
Properties=species:S:1:pos:R:3:forces:R:3 #=T ORCA=T AIMD=T Position=T Step=T 6730,=T t=3365.0 fs,=T E_Pot=-5.0704052 Hartree,=T Unit=T is=T Angstrom=T energy=-137.972753197159 pbc="F F F"
O       -5.20155362     -27.54606306     -27.16695586      -0.12511688       0.16870822      -0.22163329
H       -5.66180116     -27.48086526     -26.32878986       0.12287136      -0.10992988       0.05168508
H       -4.45441572     -28.13766884     -27.08149095       0.00224551      -0.05877834       0.16994821
3
Properties=species:S:1:pos:R:3:forces:R:3 #=T ORCA=T AIMD=T Position=T Step=T 5510,=T t=2755.0 fs,=T E_Pot=-5.07024525 Hartree,=T Unit=T is=T Angstrom=T energy=-137.9684007359644 pbc="F F F"
O       -4.21104022     -22.51387732     -22.11971266      -0.17001753       0.26644846      -0.78034725
H       -4.40007451     -22.23192506     -23.03503341       0.16607574      -0.30570557       0.61079050
H       -4.41394538     -21.75322309     -21.57523331       0.00394178       0.03925711       0.16955676
3
Properties=species:S:1:pos:R:3:forces:R:3 #=T ORCA=T AIMD=T Position=T Step=T 2460,=T t=1230.0 fs,=T E_Pot=-5.07003033 Hartree,=T Unit=T is=T Angstrom=T energy=-137.96255246488005 pbc="F F F"
O       -1.92604109      -9.72585743      -9.77477412      -0.55222619      -0.07540177      -0.79961514
H       -1.47796596      -9.94881447     -10.60360791      -0.00510397       0.10288127       0.53126170
H       -1.31022492      -9.67554758      -9.05872630       0.55733016      -0.02747950       0.26835344
3
Properties=species:S:1:pos:R:3:forces:R:3 #=T ORCA=T AIMD=T Position=T Step=T 7650,=T t=3825.0 fs,=T E_Pot=-5.07023366 Hartree,=T Unit=T is=T Angstrom=T energy=-137.9680853560004 pbc="F F F"
O       -5.89003674     -31.43068107     -30.93780832      -0.62578246      -0.20719382       0.46596238
H       -6.76046789     -31.66861798     -30.56862967       0.49845937       0.16666329      -0.38019085
H       -5.29398105     -31.44881909     -30.18550607       0.12732309       0.04053053      -0.08577152
3
Properties=species:S:1:pos:R:3:forces:R:3 #=T ORCA=T AIMD=T Position=T Step=T 4650,=T t=2325.0 fs,=T E_Pot=-5.07040731 Hartree,=T Unit=T is=T Angstrom=T energy=-137.97281061318353 pbc="F F F"
O       -3.55553087     -18.90435982     -18.60175440      -0.40967991       0.25121953      -0.15737365
H       -4.39398533     -18.47837552     -18.84655723       0.50082354      -0.22699500       0.12215807
H       -2.85597510     -18.46582592     -19.09348678      -0.09114362      -0.02422453       0.03521557
3
Properties=species:S:1:pos:R:3:forces:R:3 #=T ORCA=T AIMD=T Position=T Step=T 8780,=T t=4390.0 fs,=T E_Pot=-5.07039282 Hartree,=T Unit=T is=T Angstrom=T energy=-137.97241632020004 pbc="F F F"
O       -6.76573113     -36.22880294     -35.44763066      -0.33538042       0.35900691       0.40619096
H       -7.44241627     -35.53796411     -35.50012044       0.30476321      -0.31411825      -0.05396318
H       -6.53970566     -36.49424821     -36.33271918       0.03061721      -0.04488866      -0.35222778
3
Properties=species:S:1:pos:R:3:forces:R:3 #=T ORCA=T AIMD=T Position=T Step=T 2790,=T t=1395.0 fs,=T E_Pot=-5.07025317 Hartree,=T Unit=T is=T Angstrom=T energy=-137.9686162501417 pbc="F F F"
O       -2.16705819     -11.08175123     -11.07379107       0.20537425       0.95461452      -0.04098402
H       -1.47984808     -10.56942530     -11.52820204      -0.33380221      -0.28988131       0.21586859
H       -2.03335279     -11.99336785     -11.28183374       0.12842796      -0.66473320      -0.17488457
3
Properties=species:S:1:pos:R:3:forces:R:3 #=T ORCA=T AIMD=T Position=T Step=T 1670,=T t=835.0 fs,=T E_Pot=-5.07018174 Hartree,=T Unit=T is=T Angstrom=T energy=-137.96667254083798 pbc="F F F"
O       -1.23773722      -6.42871547      -6.65603339       0.02612990      -0.72484906       0.20748353
H       -1.79217697      -6.23815739      -5.89767842      -0.06790271       0.24285158       0.01829503
H       -1.06794225      -7.38303693      -6.58385791       0.04177281       0.48199748      -0.22577856
3
Properties=species:S:1:pos:R:3:forces:R:3 #=T ORCA=T AIMD=T Position=T Step=T 9610,=T t=4805.0 fs,=T E_Pot=-5.07028519 Hartree,=T Unit=T is=T Angstrom=T energy=-137.96948755872222 pbc="F F F"
O       -7.43959060     -39.76129236     -38.87190174       0.35840470       0.44361002       0.54916628
H       -7.82457948     -39.61161369     -39.73039598      -0.09180225       0.12424843      -0.24269960
H       -7.10049897     -38.91115307     -38.53695612      -0.26660245      -0.56785846      -0.30646668
3
Properties=species:S:1:pos:R:3:forces:R:3 #=T ORCA=T AIMD=T Position=T Step=T 5780,=T t=2890.0 fs,=T E_Pot=-5.0704434 Hartree,=T Unit=T is=T Angstrom=T energy=-137.97379267210513 pbc="F F F"
O       -4.42441486     -23.55150732     -23.29147166      -0.10777773      -0.24449393       0.30326809
H       -4.86521159     -23.24041293     -22.49315830       0.07414101       0.06144994      -0.17263148
H       -4.32538134     -24.50346747     -23.17342643       0.03363672       0.18304400      -0.13063661
3
Properties=species:S:1:pos:R:3:forces:R:3 #=T ORCA=T AIMD=T Position=T Step=T 9010,=T t=4505.0 fs,=T E_Pot=-5.07045376 Hartree,=T Unit=T is=T Angstrom=T energy=-137.97407458206436 pbc="F F F"
O       -7.02413394     -37.18807187     -36.47399564      -0.26962094      -0.15446234       0.38045915
H       -6.22128833     -36.84705673     -36.85761558       0.25851333       0.09862488      -0.05307511
H       -6.88361297     -37.28987415     -35.52363595       0.01110761       0.05583746      -0.32738404
3
Properties=species:S:1:pos:R:3:forces:R:3 #=T ORCA=T AIMD=T Position=T Step=T 9160,=T t=4580.0 fs,=T E_Pot=-5.07043528 Hartree,=T Unit=T is=T Angstrom=T energy=-137.97357171565062 pbc="F F F"
O       -7.09784726     -37.75343838     -37.09095351      -0.42823266      -0.13685333      -0.20064940
H       -7.67575860     -38.52316987     -37.05179295       0.04678022       0.15947741      -0.05465097
H       -6.36218463     -37.94426808     -36.52060878       0.38145243      -0.02262409       0.25530037
3
Properties=species:S:1:pos:R:3:forces:R:3 #=T ORCA=T AIMD=T Position=T Step=T 6140,=T t=3070.0 fs,=T E_Pot=-5.07021717 Hartree,=T Unit=T is=T Angstrom=T energy=-137.96763664024485 pbc="F F F"
O       -4.70708075     -25.14826393     -24.73785971       0.84373144      -0.24257017       0.06994734
H       -5.58673769     -24.80108274     -24.74536139      -0.50391899       0.34687885       0.09839832
H       -4.13897092     -24.59077610     -24.19057132      -0.33981245      -0.10430869      -0.16834566
3
Properties=species:S:1:pos:R:3:forces:R:3 #=T ORCA=T AIMD=T Position=T Step=T 1690,=T t=845.0 fs,=T E_Pot=-5.07016388 Hartree,=T Unit=T is=T Angstrom=T energy=-137.9661865454836 pbc="F F F"
O       -1.26703922      -6.52327005      -6.74108899       0.02414267       0.29621027      -0.30843342
H       -1.55351343      -6.12951468      -5.91431632       0.04753005      -0.29905115       0.03223418
H       -1.11548098      -7.46346405      -6.64802158      -0.07167272       0.00284088       0.27619925
3
Properties=species:S:1:pos:R:3:forces:R:3 #=T ORCA=T AIMD=T Position=T Step=T 3410,=T t=1705.0 fs,=T E_Pot=-5.07028597 Hartree,=T Unit=T is=T Angstrom=T energy=-137.9695087836033 pbc="F F F"
O       -2.64744247     -13.64476140     -13.63931607       0.59569934       0.05110999      -0.65456248
H       -1.79266297     -13.86071291     -14.05335957      -0.56001181       0.15546192       0.24588058
H       -2.66737426     -14.09490240     -12.80329750      -0.03568753      -0.20657191       0.40868190
3
Properties=species:S:1:pos:R:3:forces:R:3 #=T ORCA=T AIMD=T Position=T Step=T 4170,=T t=2085.0 fs,=T E_Pot=-5.07002685 Hartree,=T Unit=T is=T Angstrom=T energy=-137.96245776925667 pbc="F F F"
O       -3.18602635     -16.79608678     -16.72045292       0.71989554       0.13848537      -0.34839531
H       -3.96490396     -17.10522304     -16.27288048      -0.15305688      -0.35276441       0.21742949
H       -2.48242809     -17.46331486     -16.70510626      -0.56683866       0.21427904       0.13096582
3