3
Properties=species:S:1:pos:R:3:forces:R:3 energy=-2079.6580738452844 pbc="F F F"
O       -0.15060032      -0.21248801       0.38426712       0.01052034      -0.24026040      -0.01047519
H       -0.08268042       0.71330805       0.13956915       0.02864970       0.11302205      -0.08412095
H        0.15060032      -0.71330805      -0.38426712      -0.03882582       0.12708506       0.09475843
3
Properties=species:S:1:pos:R:3:forces:R:3 energy=-2079.6571565494946 pbc="F F F"
O        0.43481416      -0.36786304       0.06970221       0.34080140      -0.06910792      -0.03603237
H        0.48125907       0.51651620      -0.30565134      -0.08817681       0.02363507       0.00700194
H       -0.48125907      -0.51651620       0.30565134      -0.25252158       0.04535894       0.02927376
3
Properties=species:S:1:pos:R:3:forces:R:3 energy=-2079.6554849541108 pbc="F F F"
O       -0.34236106       0.27901886       0.04260403      -0.32104735       0.02741002      -0.34045265
H       -0.09052531      -0.27901886      -0.70468260       0.05694233       0.08622231       0.23206126
H        0.34236106       0.18861939       0.70468260       0.26386174      -0.11295191       0.10762366
3
Properties=species:S:1:pos:R:3:forces:R:3 energy=-2079.650559693417 pbc="F F F"
O       -0.41475109       0.25499390      -0.28089125       0.06699087       0.44599973      -0.48367380
H        0.53381272       0.38770060      -0.41508358      -0.25529894      -0.19490151       0.20880100
H       -0.53381272      -0.38770060       0.41508358       0.18838850      -0.25126205       0.27452313
3
Properties=species:S:1:pos:R:3:forces:R:3 energy=-2079.647534331627 pbc="F F F"
O        0.12848272      -0.27101349       0.38846223      -0.80983729       0.04558628       0.87530519
H       -0.66076026       0.27101349       0.23836267       0.33383283      -0.18064536      -0.03434120
H        0.66076026      -0.20010617      -0.38846223       0.47651955       0.13555042      -0.84057946
3
Properties=species:S:1:pos:R:3:forces:R:3 energy=-2079.6512973940653 pbc="F F F"
O       -0.34582699       0.21585115       0.38191182      -0.89598992      -0.08616246      -0.40492451
H       -0.59299088      -0.21585115      -0.45144365       0.08887008       0.17585360       0.33614266
H        0.59299088       0.10496023       0.45144365       0.80701422      -0.08988402       0.06938544
3
Properties=species:S:1:pos:R:3:forces:R:3 energy=-2079.657936699904 pbc="F F F"
O        0.24736072       0.24667342      -0.34399740       0.14765409      -0.04601817      -0.21013977
H       -0.24736072       0.69528035       0.34399740      -0.11244340       0.03160416       0.15955902
H        0.15524026      -0.69528035      -0.16951255      -0.03556756       0.01414786       0.05029680
3
Properties=species:S:1:pos:R:3:forces:R:3 energy=-2079.6448744187383 pbc="F F F"
O        0.14668225      -0.29588537       0.46799178       0.31946874      -0.51527997      -0.95971277
H       -0.31261005       0.53679087       0.38921366      -0.27531256       0.48660203       0.15415230
H        0.31261005      -0.53679087      -0.46799178      -0.04394021       0.02916207       0.80525435
3
Properties=species:S:1:pos:R:3:forces:R:3 energy=-2079.6538019299455 pbc="F F F"
O       -0.04891910       0.36121428      -0.29135873      -0.47388746      -0.05257685      -0.25569571
H       -0.68787351      -0.36121428      -0.18868004       0.36855815       0.23606786       0.06511587
H        0.68787351       0.17605764       0.29135873       0.10477884      -0.18294295       0.19073175
3
Properties=species:S:1:pos:R:3:forces:R:3 energy=-2079.6470113288065 pbc="F F F"
O       -0.21834265       0.30854670       0.35890074       0.28254348       0.74038644      -0.15445435
H        0.35750031       0.62925590      -0.35890074      -0.38212216      -0.44582505       0.39689449
H       -0.35750031      -0.62925590       0.23918205       0.09932501      -0.29486478      -0.24314045
3
Properties=species:S:1:pos:R:3:forces:R:3 energy=-2079.655708631696 pbc="F F F"
O        0.26828285       0.45283886      -0.20304234      -0.06240104       0.41639574      -0.01040058
H       -0.57024298       0.43847565       0.27204540       0.10099577      -0.13899950      -0.04145339
H        0.57024298      -0.45283886      -0.27204540      -0.03783317      -0.27740102       0.05244696
3
Properties=species:S:1:pos:R:3:forces:R:3 energy=-2079.640202223925 pbc="F F F"
O        0.05740011      -0.29826977       0.11786478       0.69965754      -0.67857377       0.36338484
H       -0.77677878       0.08801063      -0.11786478      -0.37575205       0.53169646      -0.27321552
H        0.77677878       0.29826977      -0.11294188      -0.32269687       0.14719680      -0.09015785
3
Properties=species:S:1:pos:R:3:forces:R:3 energy=-2079.655326039622 pbc="F F F"
O        0.39510314       0.11044808       0.24062845       0.29550668       0.19809945       0.22217063
H       -0.39510314       0.65488056       0.29396531      -0.10241296      -0.08577206      -0.08712060
H        0.18116680      -0.65488056      -0.29396531      -0.19279856      -0.11231443      -0.13445220
3
Properties=species:S:1:pos:R:3:forces:R:3 energy=-2079.6382408272907 pbc="F F F"
O       -0.26623159      -0.43481570       0.19501324      -0.52107024      -0.22350015       0.32634254
H       -0.55955707       0.48113942       0.28856985       0.42892123      -0.18279254      -0.23735933
H        0.55955707      -0.48113942      -0.28856985       0.09158352       0.40566740      -0.08935427
3
Properties=species:S:1:pos:R:3:forces:R:3 energy=-2079.6382408272907 pbc="F F F"
O       -0.26623159      -0.43481570       0.19501324      -0.52107024      -0.22350015       0.32634254
H       -0.55955707       0.48113942       0.28856985       0.42892123      -0.18279254      -0.23735933
H        0.55955707      -0.48113942      -0.28856985       0.09158352       0.40566740      -0.08935427
3
Properties=species:S:1:pos:R:3:forces:R:3 energy=-2079.658099423986 pbc="F F F"
O        0.40330476       0.39581326      -0.16569124      -0.22305124      -0.05528926       0.10479221
H       -0.44634425       0.56264348       0.26673782       0.21240929      -0.02637829      -0.10683531
H        0.44634425      -0.56264348      -0.26673782       0.00991561       0.08146238       0.00191593
3
Properties=species:S:1:pos:R:3:forces:R:3 energy=-2079.654924399579 pbc="F F F"
O       -0.16260871       0.30872864      -0.03762238      -0.26367210      -0.10519783       0.62725481
H        0.31187570      -0.19246652      -0.69957855       0.17020416      -0.20391488      -0.22091748
H       -0.31187570      -0.30872864       0.69957855       0.09315694       0.30855189      -0.40763748
3
Properties=species:S:1:pos:R:3:forces:R:3 energy=-2079.649103340089 pbc="F F F"
O       -0.39602516      -0.09387311       0.38606572       0.11667461       0.07084182       0.61996583
H       -0.51587381      -0.18489841      -0.55825439       0.21494769       0.04586087      -0.29570820
H        0.51587381       0.18489841       0.55825439      -0.33183226      -0.11686385      -0.32412481
3
Properties=species:S:1:pos:R:3:forces:R:3 energy=-2079.634583889254 pbc="F F F"
O        0.40968467      -0.21223560       0.22054875       0.17736777      -0.53309679       0.88650749
H        0.45618703       0.21223560      -0.62858754      -0.36726586       0.36323381      -0.41448438
H       -0.45618703      -0.07866423       0.62858754       0.18952462       0.17029076      -0.47173108
3
Properties=species:S:1:pos:R:3:forces:R:3 energy=-2079.6512002494205 pbc="F F F"
O        0.30350113      -0.15437591       0.43930513      -0.56101095       0.65130331       0.36997627
H       -0.40663752       0.50774635       0.34618298       0.43197185      -0.37804439       0.14244386
H        0.40663752      -0.50774635      -0.43930513       0.12945984      -0.27319901      -0.51194823
3
Properties=species:S:1:pos:R:3:forces:R:3 energy=-2079.658402286702 pbc="F F F"
O        0.09411581       0.25871417      -0.37441760       0.10796181       0.08192029      -0.04821467
H       -0.68955351      -0.25871417      -0.17009045      -0.04070931      -0.05594443       0.06246202
H        0.68955351       0.14476162       0.37441760      -0.06629945      -0.02555378      -0.01515460
3
Properties=species:S:1:pos:R:3:forces:R:3 energy=-2079.651058205991 pbc="F F F"
O        0.29945469       0.04355900       0.39753279      -0.18586537      -0.44538226       0.60678137
H        0.45234869       0.54547243      -0.39753279      -0.07196616       0.16137037      -0.48687555
H       -0.45234869      -0.54547243       0.23781128       0.25799644       0.28298813      -0.12030033
3
Properties=species:S:1:pos:R:3:forces:R:3 energy=-2079.6528680352103 pbc="F F F"
O        0.02487852      -0.29007788       0.26932561      -0.09362200      -0.37025842       0.32137121
H       -0.74168978      -0.07874558      -0.26932561       0.07721836       0.16079372      -0.12409029
H        0.74168978       0.29007788       0.01112971       0.01746612       0.20885983      -0.19702272
3
Properties=species:S:1:pos:R:3:forces:R:3 energy=-2079.6425619952365 pbc="F F F"
O        0.35606794      -0.13571220      -0.06823156       0.73493632       1.20943432       0.00720228
H       -0.02039147       0.75327243       0.06823156       0.12140123      -0.66726920      -0.07937659
H       -0.35606794      -0.75327243      -0.02384201      -0.85681042      -0.54182363       0.07210690
3
Properties=species:S:1:pos:R:3:forces:R:3 energy=-2079.656083332468 pbc="F F F"
O       -0.06397972       0.42194516      -0.25233179       0.02062282       0.43011577      -0.07307677
H       -0.36078710      -0.42194516      -0.59151632      -0.04188919      -0.29698866      -0.00159568
H        0.36078710       0.25136726       0.59151632       0.02156498      -0.13297921       0.07517675
3
Properties=species:S:1:pos:R:3:forces:R:3 energy=-2079.65449690872 pbc="F F F"
O       -0.04813486       0.43547773       0.36254963       0.15314345       0.39969524      -0.07966147
H        0.37235530       0.45427609      -0.50760915      -0.14775406      -0.17144220       0.20672165
H       -0.37235530      -0.45427609       0.50760915      -0.00506050      -0.22767156      -0.12619556
3
Properties=species:S:1:pos:R:3:forces:R:3 energy=-2079.6573399542294 pbc="F F F"
O        0.10115468       0.27273333      -0.37887385      -0.27568594      -0.03947862      -0.20552603
H       -0.67829763      -0.27273333      -0.20643246       0.21465520       0.10809659       0.02511695
H        0.67829763       0.16279350       0.37887385       0.06212038      -0.06870909       0.17959126
3
Properties=species:S:1:pos:R:3:forces:R:3 energy=-2079.638180145902 pbc="F F F"
O       -0.11449989       0.38211337      -0.17719354      -0.27565159       1.00533895       0.03707572
H       -0.00414587      -0.38211337      -0.73054106       0.17520676      -0.63824900      -0.02256436
H        0.11449989       0.17761692       0.73054106       0.10042442      -0.36684312      -0.01442343
3
Properties=species:S:1:pos:R:3:forces:R:3 energy=-2079.655558152737 pbc="F F F"
O       -0.12507713       0.41906275      -0.23811421       0.02548992       0.29815332      -0.05028317
H       -0.55509283      -0.41906275      -0.42352659       0.06084573      -0.14998141       0.09266287
H        0.55509283       0.25516125       0.42352659      -0.08651609      -0.14895271      -0.04217103
3
Properties=species:S:1:pos:R:3:forces:R:3 energy=-2079.6557853678014 pbc="F F F"
O       -0.06880146      -0.34595960       0.15493365       0.28324858      -0.01418694      -0.06502346
H       -0.73020016       0.34595960       0.13315270      -0.33129932       0.15041880       0.04067809
H        0.73020016       0.09639825      -0.15493365       0.04820752      -0.13569564       0.02402573
3
Properties=species:S:1:pos:R:3:forces:R:3 energy=-2079.656904844183 pbc="F F F"
O       -0.31524121       0.39406696      -0.03182614      -0.18109088       0.19543162      -0.06180722
H       -0.41093820      -0.39406696      -0.57443244       0.09159293      -0.06714611       0.04990974
H        0.41093820       0.22990550       0.57443244       0.08899154      -0.12833920       0.01246929
3
Properties=species:S:1:pos:R:3:forces:R:3 energy=-2079.6555238663914 pbc="F F F"
O        0.07008435      -0.08717513      -0.33397565       0.62429932      -0.08098060      -0.14282201
H       -0.75657787       0.08717513       0.10618445      -0.44769970       0.10376495       0.27326823
H        0.75657787       0.04453685       0.33397565      -0.17755340      -0.02282281      -0.13075855
3
Properties=species:S:1:pos:R:3:forces:R:3 energy=-2079.6548106559894 pbc="F F F"
O       -0.17327978       0.18652559      -0.36958284      -0.14832613       0.28587641      -0.08186419
H        0.16847409       0.70447849       0.36958284       0.02453023      -0.24020667      -0.07722067
H        0.17327978      -0.70447849      -0.28523615       0.12391489      -0.04497955       0.15864752
3
Properties=species:S:1:pos:R:3:forces:R:3 energy=-2079.639943715767 pbc="F F F"
O       -0.16586237       0.42984062      -0.20083697      -0.11594164       0.34043553      -0.14242015
H       -0.43800703      -0.42984062      -0.54394237       0.29202911       0.03064190       0.36087066
H        0.43800703       0.32276205       0.54394237      -0.17503887      -0.37090305      -0.21917031
3
Properties=species:S:1:pos:R:3:forces:R:3 energy=-2079.6413393877065 pbc="F F F"
O       -0.17588661       0.16005624      -0.31599952      -0.30919518      -0.33348105      -0.50345726
H        0.25485335       0.73529518       0.31599952       0.11029211      -0.17448983       0.35622658
H       -0.25485335      -0.73529518       0.04532938       0.19959794       0.50804575       0.14699409
3
Properties=species:S:1:pos:R:3:forces:R:3 energy=-2079.647572427566 pbc="F F F"
O       -0.35256500       0.35271630       0.07022514      -0.10507523       0.70827655       0.46840340
H       -0.46569418      -0.35271630      -0.55725528       0.15776460      -0.51022862      -0.27880304
H        0.46569418       0.20933937       0.55725528      -0.05191932      -0.19749936      -0.19044312
3
Properties=species:S:1:pos:R:3:forces:R:3 energy=-2079.654873242175 pbc="F F F"
O        0.42302152      -0.26950867       0.19180405       0.30998713      -0.02580179       0.11641046
H        0.46114490       0.61324302      -0.19180405      -0.17640345      -0.09453793      -0.01745085
H       -0.46114490      -0.61324302       0.04585259      -0.13327047       0.12022382      -0.09930085
3
Properties=species:S:1:pos:R:3:forces:R:3 energy=-2079.6522361868497 pbc="F F F"
O        0.03245541       0.01399027      -0.31394720       0.26537998       0.86916175      -0.00456710
H        0.22160982       0.73478293       0.31394720      -0.12688812      -0.47109051      -0.34300103
H       -0.22160982      -0.73478293       0.21706596      -0.13839565      -0.39858535       0.34752858
3
Properties=species:S:1:pos:R:3:forces:R:3 energy=-2079.6411265946754 pbc="F F F"
O       -0.39721109      -0.16545692      -0.42621421      -0.22475105      -0.33550441       0.96102897
H        0.39721109       0.34930614      -0.53282363       0.49796703       0.38709725      -0.38261725
H       -0.37813267      -0.34930614       0.53282363      -0.27310512      -0.05143749      -0.57852916
3
Properties=species:S:1:pos:R:3:forces:R:3 energy=-2079.65688062605 pbc="F F F"
O       -0.03008260      -0.39922285       0.30490614       0.11625881      -0.17196110       0.32189026
H       -0.45495622      -0.22878564      -0.53549850      -0.08217035       0.13715330      -0.23900874
H        0.45495622       0.39922285       0.53549850      -0.03446713       0.03452951      -0.08336623
3
Properties=species:S:1:pos:R:3:forces:R:3 energy=-2079.651257937557 pbc="F F F"
O       -0.00725603      -0.35269274       0.11578659       0.00349207      -0.38524837      -0.20143566
H        0.02206967       0.04097646      -0.76535150      -0.00837614       0.13376422       0.30722731
H       -0.02206967       0.35269274       0.76535150       0.00493271       0.25234048      -0.10618302
3
Properties=species:S:1:pos:R:3:forces:R:3 energy=-2079.6574950591244 pbc="F F F"
O        0.25402679       0.01026178       0.36994693       0.15056037       0.13199155       0.07893555
H        0.42265052       0.60558053      -0.36994693      -0.08909763      -0.12223550       0.03710128
H       -0.42265052      -0.60558053       0.07737576      -0.06193958      -0.00840000      -0.11501502
3
Properties=species:S:1:pos:R:3:forces:R:3 energy=-2079.6557089038097 pbc="F F F"
O       -0.34617413       0.33350269       0.15046891      -0.06264658       0.42109047       0.31273878
H       -0.52533762      -0.33350269      -0.50792058       0.00937969      -0.33396072      -0.27106083
H        0.52533762       0.14293033       0.50792058       0.05220759      -0.08720458      -0.04139296
3
Properties=species:S:1:pos:R:3:forces:R:3 energy=-2079.6559015604157 pbc="F F F"
O        0.36891477       0.21800023       0.38177155      -0.10488878      -0.13876769       0.42996402
H        0.38396922       0.36173011      -0.56455386      -0.09070688      -0.02990733      -0.26302542
H       -0.38396922      -0.36173011       0.56455386       0.19626235       0.16784749      -0.16694030
3
Properties=species:S:1:pos:R:3:forces:R:3 energy=-2079.632296228113 pbc="F F F"
O        0.34735406      -0.22539804       0.20584172       0.94566806       0.43139479       0.38054217
H        0.45310167       0.64698388      -0.20584172      -0.42018349      -0.54118116       0.02340517
H       -0.45310167      -0.64698388      -0.08545851      -0.52515485       0.10986865      -0.40415091
3
Properties=species:S:1:pos:R:3:forces:R:3 energy=-2079.646110359847 pbc="F F F"
O        0.23127917       0.00615735      -0.24182142       0.13090156      -0.67458054      -0.28653816
H       -0.06090360       0.77701388       0.24182142      -0.26026390       0.06094261       0.29874293
H       -0.23127917      -0.77701388       0.10094613       0.12878765       0.61330945      -0.01201204
3
Properties=species:S:1:pos:R:3:forces:R:3 energy=-2079.6438365765125 pbc="F F F"
O        0.36607603       0.12497664       0.35086323       0.33615932       0.11675565       0.36320933
H       -0.50832615       0.51703425       0.26917786       0.00280425      -0.23145576      -0.28440054
H        0.50832615      -0.51703425      -0.35086323      -0.33881126       0.11423047      -0.07826300
3
Properties=species:S:1:pos:R:3:forces:R:3 energy=-2079.6448836706095 pbc="F F F"
O        0.06026849      -0.25265304       0.19618560       0.42780877      -0.64154531       0.44630765
H       -0.77445185       0.13267107      -0.04830198      -0.29448508       0.41311902      -0.28594639
H        0.77445185       0.25265304      -0.19618560      -0.13320321       0.22970988      -0.16021136
3
Properties=species:S:1:pos:R:3:forces:R:3 energy=-2079.6430387387027 pbc="F F F"
O        0.39739789      -0.32110915       0.21187338      -0.08912637      -0.67362877       0.67127642
H        0.53870010       0.33849120      -0.45831490      -0.22997584       0.43931322      -0.36685181
H       -0.53870010      -0.33849120       0.45831490       0.31923760       0.23428783      -0.30406269
3
Properties=species:S:1:pos:R:3:forces:R:3 energy=-2079.6551219542343 pbc="F F F"
O        0.44476617      -0.37888342      -0.03487597       0.42811756       0.21668066      -0.16981413
H        0.43759353       0.55945055      -0.25416354       0.08811043      -0.01945482      -0.01981411
H       -0.44476617      -0.55945055       0.25416354      -0.51596516      -0.19752419       0.18954015
3
Properties=species:S:1:pos:R:3:forces:R:3 energy=-2079.6209311210328 pbc="F F F"
O       -0.14462504      -0.06333092       0.31549800      -0.34756653      -1.38483936       0.27551033
H        0.14462504       0.78066402      -0.00475437       0.36723018       0.37716790      -0.61101932
H        0.06887243      -0.78066402      -0.31549800      -0.01986003       1.00743075       0.33564993
3
Properties=species:S:1:pos:R:3:forces:R:3 energy=-2079.619288641831 pbc="F F F"
O        0.05380382       0.35740470      -0.31605415      -1.19752774       1.24162839       0.11310561
H       -0.66668044       0.20389823       0.32369020       0.77723601      -0.25638467      -0.42228141
H        0.66668044      -0.35740470      -0.32369020       0.42030104      -0.98631052       0.30962090
3
Properties=species:S:1:pos:R:3:forces:R:3 energy=-2079.6576615928007 pbc="F F F"
O        0.26319340       0.24330668       0.45150547      -0.02933500      -0.06122841       0.28376656
H        0.38661262       0.46855269      -0.47210838      -0.02629257      -0.00858944      -0.20553596
H       -0.38661262      -0.46855269       0.47210838       0.05625374       0.06913013      -0.07819255
3
Properties=species:S:1:pos:R:3:forces:R:3 energy=-2079.6503433629055 pbc="F F F"
O       -0.21974139      -0.24641820      -0.06038495      -0.24616510      -0.43280020      -0.76788177
H        0.21974139       0.24641820      -0.76373762      -0.01303220       0.01429611       0.23352247
H        0.00468446       0.16619698       0.76373762       0.25888157       0.41931292       0.53417943
3
Properties=species:S:1:pos:R:3:forces:R:3 energy=-2079.6022480561714 pbc="F F F"
O       -0.12294446       0.25724067      -0.42621939      -0.39607179       0.82364242      -1.21999096
H       -0.30950006       0.58776644       0.44587002       0.18816250      -0.39138029       0.59347010
H        0.30950007      -0.58776644      -0.44587002       0.20797994      -0.43144498       0.62601168
3
Properties=species:S:1:pos:R:3:forces:R:3 energy=-2079.6546824903658 pbc="F F F"
O        0.38073773      -0.09343864      -0.14168905       0.19375398      -0.05122342      -0.12021153
H       -0.38073773      -0.16117678      -0.72860682      -0.02470655       0.05676544       0.21375490
H        0.05900320       0.16117678       0.72860682      -0.16905159      -0.00576765      -0.09368540
3
Properties=species:S:1:pos:R:3:forces:R:3 energy=-2079.6544838472546 pbc="F F F"
O        0.43495826       0.19346307       0.27032003       0.10281282      -0.43101740      -0.25575320
H       -0.43495826       0.59213286       0.28325202      -0.28066776       0.26601828       0.09479812
H        0.31179671      -0.59213286      -0.28325202       0.17810465       0.16558780       0.16039191
3
Properties=species:S:1:pos:R:3:forces:R:3 energy=-2079.6410476816586 pbc="F F F"
O        0.40261055      -0.09107714       0.21617465       1.07102509      -0.07156949      -0.43536755
H        0.21622799       0.09107714      -0.71273898      -0.24912742      -0.01368449       0.28128174
H       -0.40261055      -0.06563620       0.71273898      -0.82134863       0.08548075       0.15403650
3
Properties=species:S:1:pos:R:3:forces:R:3 energy=-2079.656779671812 pbc="F F F"
O        0.21905399       0.34714552      -0.23855548       0.03210377       0.12172467      -0.17102846
H       -0.27573366      -0.34714552      -0.68784328       0.03334963      -0.00041426       0.15572566
H        0.27573366       0.09734114       0.68784328      -0.06603159      -0.12117183       0.01573320
3
Properties=species:S:1:pos:R:3:forces:R:3 energy=-2079.6354976475636 pbc="F F F"
O        0.36296821      -0.12377711      -0.06380918       0.42564225      -0.92747010      -0.14856211
H        0.04395085       0.76318076       0.06380918      -0.53696481       0.30889992       0.11414115
H       -0.36296821      -0.76318076       0.00057786       0.11112556       0.61821244       0.03438172
3
Properties=species:S:1:pos:R:3:forces:R:3 energy=-2079.640426717852 pbc="F F F"
O        0.08083498       0.33591143      -0.11264274       0.19345192       0.79262807       0.09459639
H       -0.08083498      -0.33591143      -0.77120019      -0.11365048      -0.46226258       0.07058363
H       -0.01249034      -0.02804517       0.77120019      -0.08016639      -0.33003372      -0.16527073
3
Properties=species:S:1:pos:R:3:forces:R:3 energy=-2079.658158744806 pbc="F F F"
O       -0.37944741      -0.12353592      -0.12179400      -0.16248838       0.09964301       0.01689662
H       -0.03547066       0.69938691       0.24315221       0.03654474      -0.08079713      -0.02640780
H        0.37944741      -0.69938691      -0.24315221       0.12539544      -0.01889689       0.00950419
3
Properties=species:S:1:pos:R:3:forces:R:3 energy=-2079.6574879841646 pbc="F F F"
O       -0.19935463      -0.06247342       0.27085909      -0.15787840      -0.32075964       0.11775288
H        0.19935463       0.75365354      -0.02654260       0.15745874       0.31254636      -0.11906219
H        0.19542575      -0.75365354      -0.27085909       0.00082543       0.00843296       0.00049915
3
Properties=species:S:1:pos:R:3:forces:R:3 energy=-2079.657803092003 pbc="F F F"
O       -0.02078425      -0.40381308       0.22284413      -0.07167264      -0.27416822      -0.14355493
H       -0.19926828      -0.14556629      -0.68810034       0.01975420       0.03410461       0.06418898
H        0.19926828       0.40381308       0.68810034       0.05152311       0.23993747       0.07923961
3
Properties=species:S:1:pos:R:3:forces:R:3 energy=-2079.654015539318 pbc="F F F"
O        0.26864766       0.14773973      -0.02387924      -0.21785936      -0.08172936       0.65513086
H       -0.26864766      -0.14773973      -0.75896049      -0.11805756      -0.07170175      -0.32971315
H       -0.26178217      -0.08318949       0.75896049       0.33632886       0.15327334      -0.32599662
3
Properties=species:S:1:pos:R:3:forces:R:3 energy=-2079.6385529418776 pbc="F F F"
O       -0.30547221       0.19547980      -0.14794422      -0.42400929       0.28337626       1.02599869
H        0.30547221      -0.19547980      -0.76494074       0.47486073      -0.29484467      -0.07183586
H        0.00471300       0.02412080       0.76494074      -0.05133773       0.01059536      -0.95414252
3
Properties=species:S:1:pos:R:3:forces:R:3 energy=-2079.653960300206 pbc="F F F"
O        0.31114742       0.27536590      -0.23359945       0.39049527       0.36766860       0.11901951
H       -0.31114742      -0.27536590      -0.70453622      -0.27443772      -0.26639505      -0.01860857
H        0.22662331       0.07590847       0.70453622      -0.11634063      -0.10137336      -0.10079352
3
Properties=species:S:1:pos:R:3:forces:R:3 energy=-2079.6577513903717 pbc="F F F"
O       -0.39253052       0.08937569      -0.18058962      -0.29006319       0.05769109       0.01814345
H        0.39253052      -0.00217473      -0.72232655       0.21090715      -0.03411967      -0.07448224
H       -0.11689913      -0.08937569       0.72232655       0.07889569      -0.02401025       0.05603056
3
Properties=species:S:1:pos:R:3:forces:R:3 energy=-2079.655985099368 pbc="F F F"
O        0.32463794      -0.33605238       0.08878604      -0.06694114       0.11295376      -0.03120898
H        0.45511061       0.33605238      -0.59534136      -0.13717726      -0.13791979       0.24377757
H       -0.45511061      -0.06863607       0.59534136       0.20473295       0.02493004      -0.21258664
3
Properties=species:S:1:pos:R:3:forces:R:3 energy=-2079.652258500186 pbc="F F F"
O        0.09711007      -0.25457793       0.34888939      -0.72117917       0.14148201       0.27202618
H       -0.71476469       0.25457793       0.16906945       0.58368468      -0.28956208       0.02288061
H        0.71476469      -0.04167776      -0.34888939       0.13735364       0.14791563      -0.29499431
3
Properties=species:S:1:pos:R:3:forces:R:3 energy=-2079.6554220958114 pbc="F F F"
O        0.35198993      -0.22472071       0.22862756       0.00679527      -0.37022880       0.06007702
H        0.24964235       0.70422249       0.01368536      -0.13834104       0.11430930      -0.12085862
H       -0.35198993      -0.70422249      -0.22862756       0.13182463       0.25572847       0.06094430
3
Properties=species:S:1:pos:R:3:forces:R:3 energy=-2079.6519545490146 pbc="F F F"
O       -0.41071865       0.28353320       0.16168880      -0.02133759       0.59170545      -0.02557266
H        0.41071865       0.66701615      -0.17763880      -0.20453755      -0.32451109       0.09771993
H       -0.30979039      -0.66701615       0.17763880       0.22627334      -0.26713435      -0.07193983
3
Properties=species:S:1:pos:R:3:forces:R:3 energy=-2079.658547323384 pbc="F F F"
O       -0.34123790      -0.19712075      -0.17816046      -0.10900362      -0.05807300      -0.06764285
H        0.34123790       0.19712075      -0.72901082       0.05530402       0.03070818      -0.00294638
H       -0.05327168      -0.06448103       0.72901082       0.05333163       0.02749543       0.06926594
3
Properties=species:S:1:pos:R:3:forces:R:3 energy=-2079.656096666047 pbc="F F F"
O       -0.26231793       0.13074110      -0.43960847      -0.27582864       0.23224355       0.01654942
H       -0.47812710       0.46951658       0.43960847       0.15072286      -0.15575266      -0.16519869
H        0.47812710      -0.46951658      -0.33465570       0.12430436      -0.07722499       0.14840589
3
Properties=species:S:1:pos:R:3:forces:R:3 energy=-2079.6306880352563 pbc="F F F"
O        0.37364405      -0.09126418      -0.00953356      -0.80605535      -1.15419293      -0.16589252
H       -0.10186684       0.72438086       0.10222975      -0.08159741       0.86107835       0.12020695
H       -0.37364405      -0.72438086      -0.10222975       0.88801416       0.29350765       0.04585769
3
Properties=species:S:1:pos:R:3:forces:R:3 energy=-2079.6512799787793 pbc="F F F"